t 0.024266 /NodeList/2/DeviceList/0/$ns3::WifiNetDevice/Phy/State/Tx DsssRate1Mbps ns3::WifiMacHeader (MGT_BEACON ToDS=0, FromDS=0, MoreFrag=0, Retry=0, MoreData=0 Duration/ID=0us, DA=ff:ff:ff:ff:ff:ff, SA=00:00:00:00:00:01, BSSID=00:00:00:00:00:01, FragNumber=0, SeqNumber=0) ns3::MgtProbeResponseHeader (ssid=spe-ssid, rates=[*1mbs *2mbs 5mbs 11mbs], ERP information=0|0|0, Extended Capabilities=0 , HT Capabilities=0|0|0|0|0 0 0 0 0 0 0 0 0 0 0 0 0 0 0 0 0 0 0 0 0 0 0 0 0 0 0 0 0 0 0 0 0 0 0 0 0 0 0 0 0 0 0 0 0 0 0 0 0 0 0 0 0 0 0 0 0 0 0 0 0 0 0 0 0 0 0 0 0 0 0 0 0 0 0 0 0  , HT Operation=0|0|0|0|0|0|0|0|0|0|0|0|0|0|0|0|0|0|0 0 0 0 0 0 0 0 0 0 0 0 0 0 0 0 0 0 0 0 0 0 0 0 0 0 0 0 0 0 0 0 0 0 0 0 0 0 0 0 0 0 0 0 0 0 0 0 0 0 0 0 0 0 0 0 0 0 0 0 0 0 0 0 0 0 0 0 0 0 0 0 0 0 0 0 0  , VHT Capabilities=0|281470681808895 , VHT Operation=0|0|0|0 , HE Capabilities=0|0|0|0|0 , HE Operation=0|0) ns3::WifiMacTrailer ()
r 0.0249305 DsssRate1Mbps/NodeList/0/DeviceList/0/$ns3::WifiNetDevice/Phy/State/RxOk ns3::WifiMacHeader (MGT_BEACON ToDS=0, FromDS=0, MoreFrag=0, Retry=0, MoreData=0 Duration/ID=0us, DA=ff:ff:ff:ff:ff:ff, SA=00:00:00:00:00:01, BSSID=00:00:00:00:00:01, FragNumber=0, SeqNumber=0) ns3::MgtProbeResponseHeader (ssid=spe-ssid, rates=[*1mbs *2mbs 5mbs 11mbs], ERP information=0|0|0, Extended Capabilities=0 , HT Capabilities=0|0|0|0|0 0 0 0 0 0 0 0 0 0 0 0 0 0 0 0 0 0 0 0 0 0 0 0 0 0 0 0 0 0 0 0 0 0 0 0 0 0 0 0 0 0 0 0 0 0 0 0 0 0 0 0 0 0 0 0 0 0 0 0 0 0 0 0 0 0 0 0 0 0 0 0 0 0 0 0 0  , HT Operation=0|0|0|0|0|0|0|0|0|0|0|0|0|0|0|0|0|0|0 0 0 0 0 0 0 0 0 0 0 0 0 0 0 0 0 0 0 0 0 0 0 0 0 0 0 0 0 0 0 0 0 0 0 0 0 0 0 0 0 0 0 0 0 0 0 0 0 0 0 0 0 0 0 0 0 0 0 0 0 0 0 0 0 0 0 0 0 0 0 0 0 0 0 0 0  , VHT Capabilities=0|281470681808895 , VHT Operation=0|0|0|0 , HE Capabilities=0|0|0|0|0 , HE Operation=0|0) ns3::WifiMacTrailer ()
r 0.0249305 DsssRate1Mbps/NodeList/1/DeviceList/0/$ns3::WifiNetDevice/Phy/State/RxOk ns3::WifiMacHeader (MGT_BEACON ToDS=0, FromDS=0, MoreFrag=0, Retry=0, MoreData=0 Duration/ID=0us, DA=ff:ff:ff:ff:ff:ff, SA=00:00:00:00:00:01, BSSID=00:00:00:00:00:01, FragNumber=0, SeqNumber=0) ns3::MgtProbeResponseHeader (ssid=spe-ssid, rates=[*1mbs *2mbs 5mbs 11mbs], ERP information=0|0|0, Extended Capabilities=0 , HT Capabilities=0|0|0|0|0 0 0 0 0 0 0 0 0 0 0 0 0 0 0 0 0 0 0 0 0 0 0 0 0 0 0 0 0 0 0 0 0 0 0 0 0 0 0 0 0 0 0 0 0 0 0 0 0 0 0 0 0 0 0 0 0 0 0 0 0 0 0 0 0 0 0 0 0 0 0 0 0 0 0 0 0  , HT Operation=0|0|0|0|0|0|0|0|0|0|0|0|0|0|0|0|0|0|0 0 0 0 0 0 0 0 0 0 0 0 0 0 0 0 0 0 0 0 0 0 0 0 0 0 0 0 0 0 0 0 0 0 0 0 0 0 0 0 0 0 0 0 0 0 0 0 0 0 0 0 0 0 0 0 0 0 0 0 0 0 0 0 0 0 0 0 0 0 0 0 0 0 0 0 0  , VHT Capabilities=0|281470681808895 , VHT Operation=0|0|0|0 , HE Capabilities=0|0|0|0|0 , HE Operation=0|0) ns3::WifiMacTrailer ()
t 0.12005 /NodeList/0/DeviceList/0/$ns3::WifiNetDevice/Phy/State/Tx DsssRate1Mbps ns3::WifiMacHeader (CTL_RTS Duration/ID=1214us, RA=00:00:00:00:00:01, TA=00:00:00:00:00:02) ns3::WifiMacTrailer ()
t 0.12005 /NodeList/1/DeviceList/0/$ns3::WifiNetDevice/Phy/State/Tx DsssRate1Mbps ns3::WifiMacHeader (CTL_RTS Duration/ID=1214us, RA=00:00:00:00:00:01, TA=00:00:00:00:00:03) ns3::WifiMacTrailer ()
t 0.121394 /NodeList/0/DeviceList/0/$ns3::WifiNetDevice/Phy/State/Tx DsssRate1Mbps ns3::WifiMacHeader (CTL_RTS Duration/ID=1214us, RA=00:00:00:00:00:01, TA=00:00:00:00:00:02) ns3::WifiMacTrailer ()
r 0.121746 DsssRate1Mbps/NodeList/2/DeviceList/0/$ns3::WifiNetDevice/Phy/State/RxOk ns3::WifiMacHeader (CTL_RTS Duration/ID=1214us, RA=00:00:00:00:00:01, TA=00:00:00:00:00:02) ns3::WifiMacTrailer ()
t 0.121757 /NodeList/2/DeviceList/0/$ns3::WifiNetDevice/Phy/State/Tx DsssRate1Mbps ns3::WifiMacHeader (CTL_CTS Duration/ID=900us, RA=00:00:00:00:00:02) ns3::WifiMacTrailer ()
r 0.122061 DsssRate1Mbps/NodeList/0/DeviceList/0/$ns3::WifiNetDevice/Phy/State/RxOk ns3::WifiMacHeader (CTL_CTS Duration/ID=900us, RA=00:00:00:00:00:02) ns3::WifiMacTrailer ()
r 0.122061 DsssRate1Mbps/NodeList/1/DeviceList/0/$ns3::WifiNetDevice/Phy/State/RxOk ns3::WifiMacHeader (CTL_CTS Duration/ID=900us, RA=00:00:00:00:00:02) ns3::WifiMacTrailer ()
t 0.122071 /NodeList/0/DeviceList/0/$ns3::WifiNetDevice/Phy/State/Tx DsssRate1Mbps ns3::WifiMacHeader (MGT_ASSOCIATION_REQUEST ToDS=0, FromDS=0, MoreFrag=0, Retry=0, MoreData=0 Duration/ID=314us, DA=00:00:00:00:00:01, SA=00:00:00:00:00:02, BSSID=00:00:00:00:00:01, FragNumber=0, SeqNumber=0) ns3::MgtAssocRequestHeader (ssid=spe-ssid, rates=[1mbs 2mbs 5mbs 11mbs], Extended Capabilities=0 , HT Capabilities=0|0|0|0|0 0 0 0 0 0 0 0 0 0 0 0 0 0 0 0 0 0 0 0 0 0 0 0 0 0 0 0 0 0 0 0 0 0 0 0 0 0 0 0 0 0 0 0 0 0 0 0 0 0 0 0 0 0 0 0 0 0 0 0 0 0 0 0 0 0 0 0 0 0 0 0 0 0 0 0 0  , VHT Capabilities=0|281470681808895 , HE Capabilities=0|0|0|0|0) ns3::WifiMacTrailer ()
r 0.122648 DsssRate1Mbps/NodeList/2/DeviceList/0/$ns3::WifiNetDevice/Phy/State/RxOk ns3::WifiMacHeader (MGT_ASSOCIATION_REQUEST ToDS=0, FromDS=0, MoreFrag=0, Retry=0, MoreData=0 Duration/ID=314us, DA=00:00:00:00:00:01, SA=00:00:00:00:00:02, BSSID=00:00:00:00:00:01, FragNumber=0, SeqNumber=0) ns3::MgtAssocRequestHeader (ssid=spe-ssid, rates=[1mbs 2mbs 5mbs 11mbs], Extended Capabilities=0 , HT Capabilities=0|0|0|0|0 0 0 0 0 0 0 0 0 0 0 0 0 0 0 0 0 0 0 0 0 0 0 0 0 0 0 0 0 0 0 0 0 0 0 0 0 0 0 0 0 0 0 0 0 0 0 0 0 0 0 0 0 0 0 0 0 0 0 0 0 0 0 0 0 0 0 0 0 0 0 0 0 0 0 0 0  , VHT Capabilities=0|281470681808895 , HE Capabilities=0|0|0|0|0) ns3::WifiMacTrailer ()
t 0.122658 /NodeList/2/DeviceList/0/$ns3::WifiNetDevice/Phy/State/Tx DsssRate1Mbps ns3::WifiMacHeader (CTL_ACK Duration/ID=0us, RA=00:00:00:00:00:02) ns3::WifiMacTrailer ()
r 0.122962 DsssRate1Mbps/NodeList/0/DeviceList/0/$ns3::WifiNetDevice/Phy/State/RxOk ns3::WifiMacHeader (CTL_ACK Duration/ID=0us, RA=00:00:00:00:00:02) ns3::WifiMacTrailer ()
r 0.122962 DsssRate1Mbps/NodeList/1/DeviceList/0/$ns3::WifiNetDevice/Phy/State/RxOk ns3::WifiMacHeader (CTL_ACK Duration/ID=0us, RA=00:00:00:00:00:02) ns3::WifiMacTrailer ()
t 0.123011 /NodeList/2/DeviceList/0/$ns3::WifiNetDevice/Phy/State/Tx DsssRate1Mbps ns3::WifiMacHeader (CTL_RTS Duration/ID=1150us, RA=00:00:00:00:00:02, TA=00:00:00:00:00:01) ns3::WifiMacTrailer ()
r 0.123364 DsssRate1Mbps/NodeList/0/DeviceList/0/$ns3::WifiNetDevice/Phy/State/RxOk ns3::WifiMacHeader (CTL_RTS Duration/ID=1150us, RA=00:00:00:00:00:02, TA=00:00:00:00:00:01) ns3::WifiMacTrailer ()
r 0.123364 DsssRate1Mbps/NodeList/1/DeviceList/0/$ns3::WifiNetDevice/Phy/State/RxOk ns3::WifiMacHeader (CTL_RTS Duration/ID=1150us, RA=00:00:00:00:00:02, TA=00:00:00:00:00:01) ns3::WifiMacTrailer ()
t 0.123374 /NodeList/0/DeviceList/0/$ns3::WifiNetDevice/Phy/State/Tx DsssRate1Mbps ns3::WifiMacHeader (CTL_CTS Duration/ID=836us, RA=00:00:00:00:00:01) ns3::WifiMacTrailer ()
r 0.123678 DsssRate1Mbps/NodeList/2/DeviceList/0/$ns3::WifiNetDevice/Phy/State/RxOk ns3::WifiMacHeader (CTL_CTS Duration/ID=836us, RA=00:00:00:00:00:01) ns3::WifiMacTrailer ()
t 0.123689 /NodeList/2/DeviceList/0/$ns3::WifiNetDevice/Phy/State/Tx DsssRate1Mbps ns3::WifiMacHeader (MGT_ASSOCIATION_RESPONSE ToDS=0, FromDS=0, MoreFrag=0, Retry=0, MoreData=0 Duration/ID=314us, DA=00:00:00:00:00:02, SA=00:00:00:00:00:01, BSSID=00:00:00:00:00:01, FragNumber=0, SeqNumber=1) ns3::MgtAssocResponseHeader (status code=success, aid=1, rates=[*1mbs *2mbs 5mbs 11mbs], ERP information=0|0|0, Extended Capabilities=0 , HT Capabilities=0|0|0|0|0 0 0 0 0 0 0 0 0 0 0 0 0 0 0 0 0 0 0 0 0 0 0 0 0 0 0 0 0 0 0 0 0 0 0 0 0 0 0 0 0 0 0 0 0 0 0 0 0 0 0 0 0 0 0 0 0 0 0 0 0 0 0 0 0 0 0 0 0 0 0 0 0 0 0 0 0  , HT Operation=0|0|0|0|0|0|0|0|0|0|0|0|0|0|0|0|0|0|0 0 0 0 0 0 0 0 0 0 0 0 0 0 0 0 0 0 0 0 0 0 0 0 0 0 0 0 0 0 0 0 0 0 0 0 0 0 0 0 0 0 0 0 0 0 0 0 0 0 0 0 0 0 0 0 0 0 0 0 0 0 0 0 0 0 0 0 0 0 0 0 0 0 0 0 0  , VHT Capabilities=0|281470681808895 , VHT Operation=0|0|0|0 , HE Capabilities=0|0|0|0|0 , HE Operation=0|0) ns3::WifiMacTrailer ()
r 0.124201 DsssRate1Mbps/NodeList/0/DeviceList/0/$ns3::WifiNetDevice/Phy/State/RxOk ns3::WifiMacHeader (MGT_ASSOCIATION_RESPONSE ToDS=0, FromDS=0, MoreFrag=0, Retry=0, MoreData=0 Duration/ID=314us, DA=00:00:00:00:00:02, SA=00:00:00:00:00:01, BSSID=00:00:00:00:00:01, FragNumber=0, SeqNumber=1) ns3::MgtAssocResponseHeader (status code=success, aid=1, rates=[*1mbs *2mbs 5mbs 11mbs], ERP information=0|0|0, Extended Capabilities=0 , HT Capabilities=0|0|0|0|0 0 0 0 0 0 0 0 0 0 0 0 0 0 0 0 0 0 0 0 0 0 0 0 0 0 0 0 0 0 0 0 0 0 0 0 0 0 0 0 0 0 0 0 0 0 0 0 0 0 0 0 0 0 0 0 0 0 0 0 0 0 0 0 0 0 0 0 0 0 0 0 0 0 0 0 0  , HT Operation=0|0|0|0|0|0|0|0|0|0|0|0|0|0|0|0|0|0|0 0 0 0 0 0 0 0 0 0 0 0 0 0 0 0 0 0 0 0 0 0 0 0 0 0 0 0 0 0 0 0 0 0 0 0 0 0 0 0 0 0 0 0 0 0 0 0 0 0 0 0 0 0 0 0 0 0 0 0 0 0 0 0 0 0 0 0 0 0 0 0 0 0 0 0 0  , VHT Capabilities=0|281470681808895 , VHT Operation=0|0|0|0 , HE Capabilities=0|0|0|0|0 , HE Operation=0|0) ns3::WifiMacTrailer ()
r 0.124201 DsssRate1Mbps/NodeList/1/DeviceList/0/$ns3::WifiNetDevice/Phy/State/RxOk ns3::WifiMacHeader (MGT_ASSOCIATION_RESPONSE ToDS=0, FromDS=0, MoreFrag=0, Retry=0, MoreData=0 Duration/ID=314us, DA=00:00:00:00:00:02, SA=00:00:00:00:00:01, BSSID=00:00:00:00:00:01, FragNumber=0, SeqNumber=1) ns3::MgtAssocResponseHeader (status code=success, aid=1, rates=[*1mbs *2mbs 5mbs 11mbs], ERP information=0|0|0, Extended Capabilities=0 , HT Capabilities=0|0|0|0|0 0 0 0 0 0 0 0 0 0 0 0 0 0 0 0 0 0 0 0 0 0 0 0 0 0 0 0 0 0 0 0 0 0 0 0 0 0 0 0 0 0 0 0 0 0 0 0 0 0 0 0 0 0 0 0 0 0 0 0 0 0 0 0 0 0 0 0 0 0 0 0 0 0 0 0 0  , HT Operation=0|0|0|0|0|0|0|0|0|0|0|0|0|0|0|0|0|0|0 0 0 0 0 0 0 0 0 0 0 0 0 0 0 0 0 0 0 0 0 0 0 0 0 0 0 0 0 0 0 0 0 0 0 0 0 0 0 0 0 0 0 0 0 0 0 0 0 0 0 0 0 0 0 0 0 0 0 0 0 0 0 0 0 0 0 0 0 0 0 0 0 0 0 0 0  , VHT Capabilities=0|281470681808895 , VHT Operation=0|0|0|0 , HE Capabilities=0|0|0|0|0 , HE Operation=0|0) ns3::WifiMacTrailer ()
t 0.124211 /NodeList/0/DeviceList/0/$ns3::WifiNetDevice/Phy/State/Tx DsssRate1Mbps ns3::WifiMacHeader (CTL_ACK Duration/ID=0us, RA=00:00:00:00:00:01) ns3::WifiMacTrailer ()
r 0.124516 DsssRate1Mbps/NodeList/2/DeviceList/0/$ns3::WifiNetDevice/Phy/State/RxOk ns3::WifiMacHeader (CTL_ACK Duration/ID=0us, RA=00:00:00:00:00:01) ns3::WifiMacTrailer ()
t 0.124745 /NodeList/1/DeviceList/0/$ns3::WifiNetDevice/Phy/State/Tx DsssRate1Mbps ns3::WifiMacHeader (CTL_RTS Duration/ID=1214us, RA=00:00:00:00:00:01, TA=00:00:00:00:00:03) ns3::WifiMacTrailer ()
r 0.125098 DsssRate1Mbps/NodeList/2/DeviceList/0/$ns3::WifiNetDevice/Phy/State/RxOk ns3::WifiMacHeader (CTL_RTS Duration/ID=1214us, RA=00:00:00:00:00:01, TA=00:00:00:00:00:03) ns3::WifiMacTrailer ()
t 0.125108 /NodeList/2/DeviceList/0/$ns3::WifiNetDevice/Phy/State/Tx DsssRate1Mbps ns3::WifiMacHeader (CTL_CTS Duration/ID=900us, RA=00:00:00:00:00:03) ns3::WifiMacTrailer ()
r 0.125412 DsssRate1Mbps/NodeList/0/DeviceList/0/$ns3::WifiNetDevice/Phy/State/RxOk ns3::WifiMacHeader (CTL_CTS Duration/ID=900us, RA=00:00:00:00:00:03) ns3::WifiMacTrailer ()
r 0.125412 DsssRate1Mbps/NodeList/1/DeviceList/0/$ns3::WifiNetDevice/Phy/State/RxOk ns3::WifiMacHeader (CTL_CTS Duration/ID=900us, RA=00:00:00:00:00:03) ns3::WifiMacTrailer ()
t 0.125422 /NodeList/1/DeviceList/0/$ns3::WifiNetDevice/Phy/State/Tx DsssRate1Mbps ns3::WifiMacHeader (MGT_ASSOCIATION_REQUEST ToDS=0, FromDS=0, MoreFrag=0, Retry=0, MoreData=0 Duration/ID=314us, DA=00:00:00:00:00:01, SA=00:00:00:00:00:03, BSSID=00:00:00:00:00:01, FragNumber=0, SeqNumber=0) ns3::MgtAssocRequestHeader (ssid=spe-ssid, rates=[1mbs 2mbs 5mbs 11mbs], Extended Capabilities=0 , HT Capabilities=0|0|0|0|0 0 0 0 0 0 0 0 0 0 0 0 0 0 0 0 0 0 0 0 0 0 0 0 0 0 0 0 0 0 0 0 0 0 0 0 0 0 0 0 0 0 0 0 0 0 0 0 0 0 0 0 0 0 0 0 0 0 0 0 0 0 0 0 0 0 0 0 0 0 0 0 0 0 0 0 0  , VHT Capabilities=0|281470681808895 , HE Capabilities=0|0|0|0|0) ns3::WifiMacTrailer ()
r 0.125999 DsssRate1Mbps/NodeList/2/DeviceList/0/$ns3::WifiNetDevice/Phy/State/RxOk ns3::WifiMacHeader (MGT_ASSOCIATION_REQUEST ToDS=0, FromDS=0, MoreFrag=0, Retry=0, MoreData=0 Duration/ID=314us, DA=00:00:00:00:00:01, SA=00:00:00:00:00:03, BSSID=00:00:00:00:00:01, FragNumber=0, SeqNumber=0) ns3::MgtAssocRequestHeader (ssid=spe-ssid, rates=[1mbs 2mbs 5mbs 11mbs], Extended Capabilities=0 , HT Capabilities=0|0|0|0|0 0 0 0 0 0 0 0 0 0 0 0 0 0 0 0 0 0 0 0 0 0 0 0 0 0 0 0 0 0 0 0 0 0 0 0 0 0 0 0 0 0 0 0 0 0 0 0 0 0 0 0 0 0 0 0 0 0 0 0 0 0 0 0 0 0 0 0 0 0 0 0 0 0 0 0 0  , VHT Capabilities=0|281470681808895 , HE Capabilities=0|0|0|0|0) ns3::WifiMacTrailer ()
t 0.126008 /NodeList/2/DeviceList/0/$ns3::WifiNetDevice/Phy/State/Tx DsssRate1Mbps ns3::WifiMacHeader (CTL_ACK Duration/ID=0us, RA=00:00:00:00:00:03) ns3::WifiMacTrailer ()
r 0.126313 DsssRate1Mbps/NodeList/0/DeviceList/0/$ns3::WifiNetDevice/Phy/State/RxOk ns3::WifiMacHeader (CTL_ACK Duration/ID=0us, RA=00:00:00:00:00:03) ns3::WifiMacTrailer ()
r 0.126313 DsssRate1Mbps/NodeList/1/DeviceList/0/$ns3::WifiNetDevice/Phy/State/RxOk ns3::WifiMacHeader (CTL_ACK Duration/ID=0us, RA=00:00:00:00:00:03) ns3::WifiMacTrailer ()
t 0.126443 /NodeList/2/DeviceList/0/$ns3::WifiNetDevice/Phy/State/Tx DsssRate1Mbps ns3::WifiMacHeader (CTL_RTS Duration/ID=1150us, RA=00:00:00:00:00:03, TA=00:00:00:00:00:01) ns3::WifiMacTrailer ()
r 0.126795 DsssRate1Mbps/NodeList/0/DeviceList/0/$ns3::WifiNetDevice/Phy/State/RxOk ns3::WifiMacHeader (CTL_RTS Duration/ID=1150us, RA=00:00:00:00:00:03, TA=00:00:00:00:00:01) ns3::WifiMacTrailer ()
r 0.126795 DsssRate1Mbps/NodeList/1/DeviceList/0/$ns3::WifiNetDevice/Phy/State/RxOk ns3::WifiMacHeader (CTL_RTS Duration/ID=1150us, RA=00:00:00:00:00:03, TA=00:00:00:00:00:01) ns3::WifiMacTrailer ()
t 0.126805 /NodeList/1/DeviceList/0/$ns3::WifiNetDevice/Phy/State/Tx DsssRate1Mbps ns3::WifiMacHeader (CTL_CTS Duration/ID=836us, RA=00:00:00:00:00:01) ns3::WifiMacTrailer ()
r 0.127109 DsssRate1Mbps/NodeList/2/DeviceList/0/$ns3::WifiNetDevice/Phy/State/RxOk ns3::WifiMacHeader (CTL_CTS Duration/ID=836us, RA=00:00:00:00:00:01) ns3::WifiMacTrailer ()
t 0.127119 /NodeList/2/DeviceList/0/$ns3::WifiNetDevice/Phy/State/Tx DsssRate1Mbps ns3::WifiMacHeader (MGT_ASSOCIATION_RESPONSE ToDS=0, FromDS=0, MoreFrag=0, Retry=0, MoreData=0 Duration/ID=314us, DA=00:00:00:00:00:03, SA=00:00:00:00:00:01, BSSID=00:00:00:00:00:01, FragNumber=0, SeqNumber=2) ns3::MgtAssocResponseHeader (status code=success, aid=2, rates=[*1mbs *2mbs 5mbs 11mbs], ERP information=0|0|0, Extended Capabilities=0 , HT Capabilities=0|0|0|0|0 0 0 0 0 0 0 0 0 0 0 0 0 0 0 0 0 0 0 0 0 0 0 0 0 0 0 0 0 0 0 0 0 0 0 0 0 0 0 0 0 0 0 0 0 0 0 0 0 0 0 0 0 0 0 0 0 0 0 0 0 0 0 0 0 0 0 0 0 0 0 0 0 0 0 0 0  , HT Operation=0|0|0|0|0|0|0|0|0|0|0|0|0|0|0|0|0|0|0 0 0 0 0 0 0 0 0 0 0 0 0 0 0 0 0 0 0 0 0 0 0 0 0 0 0 0 0 0 0 0 0 0 0 0 0 0 0 0 0 0 0 0 0 0 0 0 0 0 0 0 0 0 0 0 0 0 0 0 0 0 0 0 0 0 0 0 0 0 0 0 0 0 0 0 0  , VHT Capabilities=0|281470681808895 , VHT Operation=0|0|0|0 , HE Capabilities=0|0|0|0|0 , HE Operation=0|0) ns3::WifiMacTrailer ()
r 0.127632 DsssRate1Mbps/NodeList/0/DeviceList/0/$ns3::WifiNetDevice/Phy/State/RxOk ns3::WifiMacHeader (MGT_ASSOCIATION_RESPONSE ToDS=0, FromDS=0, MoreFrag=0, Retry=0, MoreData=0 Duration/ID=314us, DA=00:00:00:00:00:03, SA=00:00:00:00:00:01, BSSID=00:00:00:00:00:01, FragNumber=0, SeqNumber=2) ns3::MgtAssocResponseHeader (status code=success, aid=2, rates=[*1mbs *2mbs 5mbs 11mbs], ERP information=0|0|0, Extended Capabilities=0 , HT Capabilities=0|0|0|0|0 0 0 0 0 0 0 0 0 0 0 0 0 0 0 0 0 0 0 0 0 0 0 0 0 0 0 0 0 0 0 0 0 0 0 0 0 0 0 0 0 0 0 0 0 0 0 0 0 0 0 0 0 0 0 0 0 0 0 0 0 0 0 0 0 0 0 0 0 0 0 0 0 0 0 0 0  , HT Operation=0|0|0|0|0|0|0|0|0|0|0|0|0|0|0|0|0|0|0 0 0 0 0 0 0 0 0 0 0 0 0 0 0 0 0 0 0 0 0 0 0 0 0 0 0 0 0 0 0 0 0 0 0 0 0 0 0 0 0 0 0 0 0 0 0 0 0 0 0 0 0 0 0 0 0 0 0 0 0 0 0 0 0 0 0 0 0 0 0 0 0 0 0 0 0  , VHT Capabilities=0|281470681808895 , VHT Operation=0|0|0|0 , HE Capabilities=0|0|0|0|0 , HE Operation=0|0) ns3::WifiMacTrailer ()
r 0.127632 DsssRate1Mbps/NodeList/1/DeviceList/0/$ns3::WifiNetDevice/Phy/State/RxOk ns3::WifiMacHeader (MGT_ASSOCIATION_RESPONSE ToDS=0, FromDS=0, MoreFrag=0, Retry=0, MoreData=0 Duration/ID=314us, DA=00:00:00:00:00:03, SA=00:00:00:00:00:01, BSSID=00:00:00:00:00:01, FragNumber=0, SeqNumber=2) ns3::MgtAssocResponseHeader (status code=success, aid=2, rates=[*1mbs *2mbs 5mbs 11mbs], ERP information=0|0|0, Extended Capabilities=0 , HT Capabilities=0|0|0|0|0 0 0 0 0 0 0 0 0 0 0 0 0 0 0 0 0 0 0 0 0 0 0 0 0 0 0 0 0 0 0 0 0 0 0 0 0 0 0 0 0 0 0 0 0 0 0 0 0 0 0 0 0 0 0 0 0 0 0 0 0 0 0 0 0 0 0 0 0 0 0 0 0 0 0 0 0  , HT Operation=0|0|0|0|0|0|0|0|0|0|0|0|0|0|0|0|0|0|0 0 0 0 0 0 0 0 0 0 0 0 0 0 0 0 0 0 0 0 0 0 0 0 0 0 0 0 0 0 0 0 0 0 0 0 0 0 0 0 0 0 0 0 0 0 0 0 0 0 0 0 0 0 0 0 0 0 0 0 0 0 0 0 0 0 0 0 0 0 0 0 0 0 0 0 0  , VHT Capabilities=0|281470681808895 , VHT Operation=0|0|0|0 , HE Capabilities=0|0|0|0|0 , HE Operation=0|0) ns3::WifiMacTrailer ()
t 0.127642 /NodeList/1/DeviceList/0/$ns3::WifiNetDevice/Phy/State/Tx DsssRate1Mbps ns3::WifiMacHeader (CTL_ACK Duration/ID=0us, RA=00:00:00:00:00:01) ns3::WifiMacTrailer ()
r 0.127946 DsssRate1Mbps/NodeList/2/DeviceList/0/$ns3::WifiNetDevice/Phy/State/RxOk ns3::WifiMacHeader (CTL_ACK Duration/ID=0us, RA=00:00:00:00:00:01) ns3::WifiMacTrailer ()
t 0.127976 /NodeList/2/DeviceList/0/$ns3::WifiNetDevice/Phy/State/Tx DsssRate1Mbps ns3::WifiMacHeader (MGT_BEACON ToDS=0, FromDS=0, MoreFrag=0, Retry=0, MoreData=0 Duration/ID=0us, DA=ff:ff:ff:ff:ff:ff, SA=00:00:00:00:00:01, BSSID=00:00:00:00:00:01, FragNumber=0, SeqNumber=3) ns3::MgtProbeResponseHeader (ssid=spe-ssid, rates=[*1mbs *2mbs 5mbs 11mbs], ERP information=0|0|0, Extended Capabilities=0 , HT Capabilities=0|0|0|0|0 0 0 0 0 0 0 0 0 0 0 0 0 0 0 0 0 0 0 0 0 0 0 0 0 0 0 0 0 0 0 0 0 0 0 0 0 0 0 0 0 0 0 0 0 0 0 0 0 0 0 0 0 0 0 0 0 0 0 0 0 0 0 0 0 0 0 0 0 0 0 0 0 0 0 0 0  , HT Operation=0|0|0|0|0|0|0|0|0|0|0|0|0|0|0|0|0|0|0 0 0 0 0 0 0 0 0 0 0 0 0 0 0 0 0 0 0 0 0 0 0 0 0 0 0 0 0 0 0 0 0 0 0 0 0 0 0 0 0 0 0 0 0 0 0 0 0 0 0 0 0 0 0 0 0 0 0 0 0 0 0 0 0 0 0 0 0 0 0 0 0 0 0 0 0  , VHT Capabilities=0|281470681808895 , VHT Operation=0|0|0|0 , HE Capabilities=0|0|0|0|0 , HE Operation=0|0) ns3::WifiMacTrailer ()
r 0.128641 DsssRate1Mbps/NodeList/0/DeviceList/0/$ns3::WifiNetDevice/Phy/State/RxOk ns3::WifiMacHeader (MGT_BEACON ToDS=0, FromDS=0, MoreFrag=0, Retry=0, MoreData=0 Duration/ID=0us, DA=ff:ff:ff:ff:ff:ff, SA=00:00:00:00:00:01, BSSID=00:00:00:00:00:01, FragNumber=0, SeqNumber=3) ns3::MgtProbeResponseHeader (ssid=spe-ssid, rates=[*1mbs *2mbs 5mbs 11mbs], ERP information=0|0|0, Extended Capabilities=0 , HT Capabilities=0|0|0|0|0 0 0 0 0 0 0 0 0 0 0 0 0 0 0 0 0 0 0 0 0 0 0 0 0 0 0 0 0 0 0 0 0 0 0 0 0 0 0 0 0 0 0 0 0 0 0 0 0 0 0 0 0 0 0 0 0 0 0 0 0 0 0 0 0 0 0 0 0 0 0 0 0 0 0 0 0  , HT Operation=0|0|0|0|0|0|0|0|0|0|0|0|0|0|0|0|0|0|0 0 0 0 0 0 0 0 0 0 0 0 0 0 0 0 0 0 0 0 0 0 0 0 0 0 0 0 0 0 0 0 0 0 0 0 0 0 0 0 0 0 0 0 0 0 0 0 0 0 0 0 0 0 0 0 0 0 0 0 0 0 0 0 0 0 0 0 0 0 0 0 0 0 0 0 0  , VHT Capabilities=0|281470681808895 , VHT Operation=0|0|0|0 , HE Capabilities=0|0|0|0|0 , HE Operation=0|0) ns3::WifiMacTrailer ()
r 0.128641 DsssRate1Mbps/NodeList/1/DeviceList/0/$ns3::WifiNetDevice/Phy/State/RxOk ns3::WifiMacHeader (MGT_BEACON ToDS=0, FromDS=0, MoreFrag=0, Retry=0, MoreData=0 Duration/ID=0us, DA=ff:ff:ff:ff:ff:ff, SA=00:00:00:00:00:01, BSSID=00:00:00:00:00:01, FragNumber=0, SeqNumber=3) ns3::MgtProbeResponseHeader (ssid=spe-ssid, rates=[*1mbs *2mbs 5mbs 11mbs], ERP information=0|0|0, Extended Capabilities=0 , HT Capabilities=0|0|0|0|0 0 0 0 0 0 0 0 0 0 0 0 0 0 0 0 0 0 0 0 0 0 0 0 0 0 0 0 0 0 0 0 0 0 0 0 0 0 0 0 0 0 0 0 0 0 0 0 0 0 0 0 0 0 0 0 0 0 0 0 0 0 0 0 0 0 0 0 0 0 0 0 0 0 0 0 0  , HT Operation=0|0|0|0|0|0|0|0|0|0|0|0|0|0|0|0|0|0|0 0 0 0 0 0 0 0 0 0 0 0 0 0 0 0 0 0 0 0 0 0 0 0 0 0 0 0 0 0 0 0 0 0 0 0 0 0 0 0 0 0 0 0 0 0 0 0 0 0 0 0 0 0 0 0 0 0 0 0 0 0 0 0 0 0 0 0 0 0 0 0 0 0 0 0 0  , VHT Capabilities=0|281470681808895 , VHT Operation=0|0|0|0 , HE Capabilities=0|0|0|0|0 , HE Operation=0|0) ns3::WifiMacTrailer ()
t 0.229066 /NodeList/2/DeviceList/0/$ns3::WifiNetDevice/Phy/State/Tx DsssRate1Mbps ns3::WifiMacHeader (MGT_BEACON ToDS=0, FromDS=0, MoreFrag=0, Retry=0, MoreData=0 Duration/ID=0us, DA=ff:ff:ff:ff:ff:ff, SA=00:00:00:00:00:01, BSSID=00:00:00:00:00:01, FragNumber=0, SeqNumber=4) ns3::MgtProbeResponseHeader (ssid=spe-ssid, rates=[*1mbs *2mbs 5mbs 11mbs], ERP information=0|0|0, Extended Capabilities=0 , HT Capabilities=0|0|0|0|0 0 0 0 0 0 0 0 0 0 0 0 0 0 0 0 0 0 0 0 0 0 0 0 0 0 0 0 0 0 0 0 0 0 0 0 0 0 0 0 0 0 0 0 0 0 0 0 0 0 0 0 0 0 0 0 0 0 0 0 0 0 0 0 0 0 0 0 0 0 0 0 0 0 0 0 0  , HT Operation=0|0|0|0|0|0|0|0|0|0|0|0|0|0|0|0|0|0|0 0 0 0 0 0 0 0 0 0 0 0 0 0 0 0 0 0 0 0 0 0 0 0 0 0 0 0 0 0 0 0 0 0 0 0 0 0 0 0 0 0 0 0 0 0 0 0 0 0 0 0 0 0 0 0 0 0 0 0 0 0 0 0 0 0 0 0 0 0 0 0 0 0 0 0 0  , VHT Capabilities=0|281470681808895 , VHT Operation=0|0|0|0 , HE Capabilities=0|0|0|0|0 , HE Operation=0|0) ns3::WifiMacTrailer ()
r 0.229731 DsssRate1Mbps/NodeList/0/DeviceList/0/$ns3::WifiNetDevice/Phy/State/RxOk ns3::WifiMacHeader (MGT_BEACON ToDS=0, FromDS=0, MoreFrag=0, Retry=0, MoreData=0 Duration/ID=0us, DA=ff:ff:ff:ff:ff:ff, SA=00:00:00:00:00:01, BSSID=00:00:00:00:00:01, FragNumber=0, SeqNumber=4) ns3::MgtProbeResponseHeader (ssid=spe-ssid, rates=[*1mbs *2mbs 5mbs 11mbs], ERP information=0|0|0, Extended Capabilities=0 , HT Capabilities=0|0|0|0|0 0 0 0 0 0 0 0 0 0 0 0 0 0 0 0 0 0 0 0 0 0 0 0 0 0 0 0 0 0 0 0 0 0 0 0 0 0 0 0 0 0 0 0 0 0 0 0 0 0 0 0 0 0 0 0 0 0 0 0 0 0 0 0 0 0 0 0 0 0 0 0 0 0 0 0 0  , HT Operation=0|0|0|0|0|0|0|0|0|0|0|0|0|0|0|0|0|0|0 0 0 0 0 0 0 0 0 0 0 0 0 0 0 0 0 0 0 0 0 0 0 0 0 0 0 0 0 0 0 0 0 0 0 0 0 0 0 0 0 0 0 0 0 0 0 0 0 0 0 0 0 0 0 0 0 0 0 0 0 0 0 0 0 0 0 0 0 0 0 0 0 0 0 0 0  , VHT Capabilities=0|281470681808895 , VHT Operation=0|0|0|0 , HE Capabilities=0|0|0|0|0 , HE Operation=0|0) ns3::WifiMacTrailer ()
r 0.229731 DsssRate1Mbps/NodeList/1/DeviceList/0/$ns3::WifiNetDevice/Phy/State/RxOk ns3::WifiMacHeader (MGT_BEACON ToDS=0, FromDS=0, MoreFrag=0, Retry=0, MoreData=0 Duration/ID=0us, DA=ff:ff:ff:ff:ff:ff, SA=00:00:00:00:00:01, BSSID=00:00:00:00:00:01, FragNumber=0, SeqNumber=4) ns3::MgtProbeResponseHeader (ssid=spe-ssid, rates=[*1mbs *2mbs 5mbs 11mbs], ERP information=0|0|0, Extended Capabilities=0 , HT Capabilities=0|0|0|0|0 0 0 0 0 0 0 0 0 0 0 0 0 0 0 0 0 0 0 0 0 0 0 0 0 0 0 0 0 0 0 0 0 0 0 0 0 0 0 0 0 0 0 0 0 0 0 0 0 0 0 0 0 0 0 0 0 0 0 0 0 0 0 0 0 0 0 0 0 0 0 0 0 0 0 0 0  , HT Operation=0|0|0|0|0|0|0|0|0|0|0|0|0|0|0|0|0|0|0 0 0 0 0 0 0 0 0 0 0 0 0 0 0 0 0 0 0 0 0 0 0 0 0 0 0 0 0 0 0 0 0 0 0 0 0 0 0 0 0 0 0 0 0 0 0 0 0 0 0 0 0 0 0 0 0 0 0 0 0 0 0 0 0 0 0 0 0 0 0 0 0 0 0 0 0  , VHT Capabilities=0|281470681808895 , VHT Operation=0|0|0|0 , HE Capabilities=0|0|0|0|0 , HE Operation=0|0) ns3::WifiMacTrailer ()
t 0.331466 /NodeList/2/DeviceList/0/$ns3::WifiNetDevice/Phy/State/Tx DsssRate1Mbps ns3::WifiMacHeader (MGT_BEACON ToDS=0, FromDS=0, MoreFrag=0, Retry=0, MoreData=0 Duration/ID=0us, DA=ff:ff:ff:ff:ff:ff, SA=00:00:00:00:00:01, BSSID=00:00:00:00:00:01, FragNumber=0, SeqNumber=5) ns3::MgtProbeResponseHeader (ssid=spe-ssid, rates=[*1mbs *2mbs 5mbs 11mbs], ERP information=0|0|0, Extended Capabilities=0 , HT Capabilities=0|0|0|0|0 0 0 0 0 0 0 0 0 0 0 0 0 0 0 0 0 0 0 0 0 0 0 0 0 0 0 0 0 0 0 0 0 0 0 0 0 0 0 0 0 0 0 0 0 0 0 0 0 0 0 0 0 0 0 0 0 0 0 0 0 0 0 0 0 0 0 0 0 0 0 0 0 0 0 0 0  , HT Operation=0|0|0|0|0|0|0|0|0|0|0|0|0|0|0|0|0|0|0 0 0 0 0 0 0 0 0 0 0 0 0 0 0 0 0 0 0 0 0 0 0 0 0 0 0 0 0 0 0 0 0 0 0 0 0 0 0 0 0 0 0 0 0 0 0 0 0 0 0 0 0 0 0 0 0 0 0 0 0 0 0 0 0 0 0 0 0 0 0 0 0 0 0 0 0  , VHT Capabilities=0|281470681808895 , VHT Operation=0|0|0|0 , HE Capabilities=0|0|0|0|0 , HE Operation=0|0) ns3::WifiMacTrailer ()
r 0.33213 DsssRate1Mbps/NodeList/0/DeviceList/0/$ns3::WifiNetDevice/Phy/State/RxOk ns3::WifiMacHeader (MGT_BEACON ToDS=0, FromDS=0, MoreFrag=0, Retry=0, MoreData=0 Duration/ID=0us, DA=ff:ff:ff:ff:ff:ff, SA=00:00:00:00:00:01, BSSID=00:00:00:00:00:01, FragNumber=0, SeqNumber=5) ns3::MgtProbeResponseHeader (ssid=spe-ssid, rates=[*1mbs *2mbs 5mbs 11mbs], ERP information=0|0|0, Extended Capabilities=0 , HT Capabilities=0|0|0|0|0 0 0 0 0 0 0 0 0 0 0 0 0 0 0 0 0 0 0 0 0 0 0 0 0 0 0 0 0 0 0 0 0 0 0 0 0 0 0 0 0 0 0 0 0 0 0 0 0 0 0 0 0 0 0 0 0 0 0 0 0 0 0 0 0 0 0 0 0 0 0 0 0 0 0 0 0  , HT Operation=0|0|0|0|0|0|0|0|0|0|0|0|0|0|0|0|0|0|0 0 0 0 0 0 0 0 0 0 0 0 0 0 0 0 0 0 0 0 0 0 0 0 0 0 0 0 0 0 0 0 0 0 0 0 0 0 0 0 0 0 0 0 0 0 0 0 0 0 0 0 0 0 0 0 0 0 0 0 0 0 0 0 0 0 0 0 0 0 0 0 0 0 0 0 0  , VHT Capabilities=0|281470681808895 , VHT Operation=0|0|0|0 , HE Capabilities=0|0|0|0|0 , HE Operation=0|0) ns3::WifiMacTrailer ()
r 0.33213 DsssRate1Mbps/NodeList/1/DeviceList/0/$ns3::WifiNetDevice/Phy/State/RxOk ns3::WifiMacHeader (MGT_BEACON ToDS=0, FromDS=0, MoreFrag=0, Retry=0, MoreData=0 Duration/ID=0us, DA=ff:ff:ff:ff:ff:ff, SA=00:00:00:00:00:01, BSSID=00:00:00:00:00:01, FragNumber=0, SeqNumber=5) ns3::MgtProbeResponseHeader (ssid=spe-ssid, rates=[*1mbs *2mbs 5mbs 11mbs], ERP information=0|0|0, Extended Capabilities=0 , HT Capabilities=0|0|0|0|0 0 0 0 0 0 0 0 0 0 0 0 0 0 0 0 0 0 0 0 0 0 0 0 0 0 0 0 0 0 0 0 0 0 0 0 0 0 0 0 0 0 0 0 0 0 0 0 0 0 0 0 0 0 0 0 0 0 0 0 0 0 0 0 0 0 0 0 0 0 0 0 0 0 0 0 0  , HT Operation=0|0|0|0|0|0|0|0|0|0|0|0|0|0|0|0|0|0|0 0 0 0 0 0 0 0 0 0 0 0 0 0 0 0 0 0 0 0 0 0 0 0 0 0 0 0 0 0 0 0 0 0 0 0 0 0 0 0 0 0 0 0 0 0 0 0 0 0 0 0 0 0 0 0 0 0 0 0 0 0 0 0 0 0 0 0 0 0 0 0 0 0 0 0 0  , VHT Capabilities=0|281470681808895 , VHT Operation=0|0|0|0 , HE Capabilities=0|0|0|0|0 , HE Operation=0|0) ns3::WifiMacTrailer ()
t 0.433866 /NodeList/2/DeviceList/0/$ns3::WifiNetDevice/Phy/State/Tx DsssRate1Mbps ns3::WifiMacHeader (MGT_BEACON ToDS=0, FromDS=0, MoreFrag=0, Retry=0, MoreData=0 Duration/ID=0us, DA=ff:ff:ff:ff:ff:ff, SA=00:00:00:00:00:01, BSSID=00:00:00:00:00:01, FragNumber=0, SeqNumber=6) ns3::MgtProbeResponseHeader (ssid=spe-ssid, rates=[*1mbs *2mbs 5mbs 11mbs], ERP information=0|0|0, Extended Capabilities=0 , HT Capabilities=0|0|0|0|0 0 0 0 0 0 0 0 0 0 0 0 0 0 0 0 0 0 0 0 0 0 0 0 0 0 0 0 0 0 0 0 0 0 0 0 0 0 0 0 0 0 0 0 0 0 0 0 0 0 0 0 0 0 0 0 0 0 0 0 0 0 0 0 0 0 0 0 0 0 0 0 0 0 0 0 0  , HT Operation=0|0|0|0|0|0|0|0|0|0|0|0|0|0|0|0|0|0|0 0 0 0 0 0 0 0 0 0 0 0 0 0 0 0 0 0 0 0 0 0 0 0 0 0 0 0 0 0 0 0 0 0 0 0 0 0 0 0 0 0 0 0 0 0 0 0 0 0 0 0 0 0 0 0 0 0 0 0 0 0 0 0 0 0 0 0 0 0 0 0 0 0 0 0 0  , VHT Capabilities=0|281470681808895 , VHT Operation=0|0|0|0 , HE Capabilities=0|0|0|0|0 , HE Operation=0|0) ns3::WifiMacTrailer ()
r 0.43453 DsssRate1Mbps/NodeList/0/DeviceList/0/$ns3::WifiNetDevice/Phy/State/RxOk ns3::WifiMacHeader (MGT_BEACON ToDS=0, FromDS=0, MoreFrag=0, Retry=0, MoreData=0 Duration/ID=0us, DA=ff:ff:ff:ff:ff:ff, SA=00:00:00:00:00:01, BSSID=00:00:00:00:00:01, FragNumber=0, SeqNumber=6) ns3::MgtProbeResponseHeader (ssid=spe-ssid, rates=[*1mbs *2mbs 5mbs 11mbs], ERP information=0|0|0, Extended Capabilities=0 , HT Capabilities=0|0|0|0|0 0 0 0 0 0 0 0 0 0 0 0 0 0 0 0 0 0 0 0 0 0 0 0 0 0 0 0 0 0 0 0 0 0 0 0 0 0 0 0 0 0 0 0 0 0 0 0 0 0 0 0 0 0 0 0 0 0 0 0 0 0 0 0 0 0 0 0 0 0 0 0 0 0 0 0 0  , HT Operation=0|0|0|0|0|0|0|0|0|0|0|0|0|0|0|0|0|0|0 0 0 0 0 0 0 0 0 0 0 0 0 0 0 0 0 0 0 0 0 0 0 0 0 0 0 0 0 0 0 0 0 0 0 0 0 0 0 0 0 0 0 0 0 0 0 0 0 0 0 0 0 0 0 0 0 0 0 0 0 0 0 0 0 0 0 0 0 0 0 0 0 0 0 0 0  , VHT Capabilities=0|281470681808895 , VHT Operation=0|0|0|0 , HE Capabilities=0|0|0|0|0 , HE Operation=0|0) ns3::WifiMacTrailer ()
r 0.43453 DsssRate1Mbps/NodeList/1/DeviceList/0/$ns3::WifiNetDevice/Phy/State/RxOk ns3::WifiMacHeader (MGT_BEACON ToDS=0, FromDS=0, MoreFrag=0, Retry=0, MoreData=0 Duration/ID=0us, DA=ff:ff:ff:ff:ff:ff, SA=00:00:00:00:00:01, BSSID=00:00:00:00:00:01, FragNumber=0, SeqNumber=6) ns3::MgtProbeResponseHeader (ssid=spe-ssid, rates=[*1mbs *2mbs 5mbs 11mbs], ERP information=0|0|0, Extended Capabilities=0 , HT Capabilities=0|0|0|0|0 0 0 0 0 0 0 0 0 0 0 0 0 0 0 0 0 0 0 0 0 0 0 0 0 0 0 0 0 0 0 0 0 0 0 0 0 0 0 0 0 0 0 0 0 0 0 0 0 0 0 0 0 0 0 0 0 0 0 0 0 0 0 0 0 0 0 0 0 0 0 0 0 0 0 0 0  , HT Operation=0|0|0|0|0|0|0|0|0|0|0|0|0|0|0|0|0|0|0 0 0 0 0 0 0 0 0 0 0 0 0 0 0 0 0 0 0 0 0 0 0 0 0 0 0 0 0 0 0 0 0 0 0 0 0 0 0 0 0 0 0 0 0 0 0 0 0 0 0 0 0 0 0 0 0 0 0 0 0 0 0 0 0 0 0 0 0 0 0 0 0 0 0 0 0  , VHT Capabilities=0|281470681808895 , VHT Operation=0|0|0|0 , HE Capabilities=0|0|0|0|0 , HE Operation=0|0) ns3::WifiMacTrailer ()
t 0.536266 /NodeList/2/DeviceList/0/$ns3::WifiNetDevice/Phy/State/Tx DsssRate1Mbps ns3::WifiMacHeader (MGT_BEACON ToDS=0, FromDS=0, MoreFrag=0, Retry=0, MoreData=0 Duration/ID=0us, DA=ff:ff:ff:ff:ff:ff, SA=00:00:00:00:00:01, BSSID=00:00:00:00:00:01, FragNumber=0, SeqNumber=7) ns3::MgtProbeResponseHeader (ssid=spe-ssid, rates=[*1mbs *2mbs 5mbs 11mbs], ERP information=0|0|0, Extended Capabilities=0 , HT Capabilities=0|0|0|0|0 0 0 0 0 0 0 0 0 0 0 0 0 0 0 0 0 0 0 0 0 0 0 0 0 0 0 0 0 0 0 0 0 0 0 0 0 0 0 0 0 0 0 0 0 0 0 0 0 0 0 0 0 0 0 0 0 0 0 0 0 0 0 0 0 0 0 0 0 0 0 0 0 0 0 0 0  , HT Operation=0|0|0|0|0|0|0|0|0|0|0|0|0|0|0|0|0|0|0 0 0 0 0 0 0 0 0 0 0 0 0 0 0 0 0 0 0 0 0 0 0 0 0 0 0 0 0 0 0 0 0 0 0 0 0 0 0 0 0 0 0 0 0 0 0 0 0 0 0 0 0 0 0 0 0 0 0 0 0 0 0 0 0 0 0 0 0 0 0 0 0 0 0 0 0  , VHT Capabilities=0|281470681808895 , VHT Operation=0|0|0|0 , HE Capabilities=0|0|0|0|0 , HE Operation=0|0) ns3::WifiMacTrailer ()
r 0.53693 DsssRate1Mbps/NodeList/0/DeviceList/0/$ns3::WifiNetDevice/Phy/State/RxOk ns3::WifiMacHeader (MGT_BEACON ToDS=0, FromDS=0, MoreFrag=0, Retry=0, MoreData=0 Duration/ID=0us, DA=ff:ff:ff:ff:ff:ff, SA=00:00:00:00:00:01, BSSID=00:00:00:00:00:01, FragNumber=0, SeqNumber=7) ns3::MgtProbeResponseHeader (ssid=spe-ssid, rates=[*1mbs *2mbs 5mbs 11mbs], ERP information=0|0|0, Extended Capabilities=0 , HT Capabilities=0|0|0|0|0 0 0 0 0 0 0 0 0 0 0 0 0 0 0 0 0 0 0 0 0 0 0 0 0 0 0 0 0 0 0 0 0 0 0 0 0 0 0 0 0 0 0 0 0 0 0 0 0 0 0 0 0 0 0 0 0 0 0 0 0 0 0 0 0 0 0 0 0 0 0 0 0 0 0 0 0  , HT Operation=0|0|0|0|0|0|0|0|0|0|0|0|0|0|0|0|0|0|0 0 0 0 0 0 0 0 0 0 0 0 0 0 0 0 0 0 0 0 0 0 0 0 0 0 0 0 0 0 0 0 0 0 0 0 0 0 0 0 0 0 0 0 0 0 0 0 0 0 0 0 0 0 0 0 0 0 0 0 0 0 0 0 0 0 0 0 0 0 0 0 0 0 0 0 0  , VHT Capabilities=0|281470681808895 , VHT Operation=0|0|0|0 , HE Capabilities=0|0|0|0|0 , HE Operation=0|0) ns3::WifiMacTrailer ()