t 0.0071 /NodeList/2/DeviceList/0/$ns3::WifiNetDevice/Phy/State/Tx OfdmRate6Mbps ns3::WifiMacHeader (MGT_BEACON ToDS=0, FromDS=0, MoreFrag=0, Retry=0, MoreData=0 Duration/ID=0us, DA=ff:ff:ff:ff:ff:ff, SA=00:00:00:00:00:01, BSSID=00:00:00:00:00:01, FragNumber=0, SeqNumber=0) ns3::MgtProbeResponseHeader (ssid=spe-ssid, rates=[*6mbs 9mbs *12mbs 18mbs *24mbs 36mbs 48mbs 54mbs], ERP information=0|0|0, Extended Capabilities=0 , HT Capabilities=0|0|0|0|0 0 0 0 0 0 0 0 0 0 0 0 0 0 0 0 0 0 0 0 0 0 0 0 0 0 0 0 0 0 0 0 0 0 0 0 0 0 0 0 0 0 0 0 0 0 0 0 0 0 0 0 0 0 0 0 0 0 0 0 0 0 0 0 0 0 0 0 0 0 0 0 0 0 0 0 0  , HT Operation=0|0|0|0|0|0|0|0|0|0|0|0|0|0|0|0|0|0|0 0 0 0 0 0 0 0 0 0 0 0 0 0 0 0 0 0 0 0 0 0 0 0 0 0 0 0 0 0 0 0 0 0 0 0 0 0 0 0 0 0 0 0 0 0 0 0 0 0 0 0 0 0 0 0 0 0 0 0 0 0 0 0 0 0 0 0 0 0 0 0 0 0 0 0 0  , VHT Capabilities=0|281470681808895 , VHT Operation=0|0|0|0 , HE Capabilities=0|0|0|0|0 , HE Operation=0|0) ns3::WifiMacTrailer ()
r 0.0072045 OfdmRate6Mbps/NodeList/0/DeviceList/0/$ns3::WifiNetDevice/Phy/State/RxOk ns3::WifiMacHeader (MGT_BEACON ToDS=0, FromDS=0, MoreFrag=0, Retry=0, MoreData=0 Duration/ID=0us, DA=ff:ff:ff:ff:ff:ff, SA=00:00:00:00:00:01, BSSID=00:00:00:00:00:01, FragNumber=0, SeqNumber=0) ns3::MgtProbeResponseHeader (ssid=spe-ssid, rates=[*6mbs 9mbs *12mbs 18mbs *24mbs 36mbs 48mbs 54mbs], ERP information=0|0|0, Extended Capabilities=0 , HT Capabilities=0|0|0|0|0 0 0 0 0 0 0 0 0 0 0 0 0 0 0 0 0 0 0 0 0 0 0 0 0 0 0 0 0 0 0 0 0 0 0 0 0 0 0 0 0 0 0 0 0 0 0 0 0 0 0 0 0 0 0 0 0 0 0 0 0 0 0 0 0 0 0 0 0 0 0 0 0 0 0 0 0  , HT Operation=0|0|0|0|0|0|0|0|0|0|0|0|0|0|0|0|0|0|0 0 0 0 0 0 0 0 0 0 0 0 0 0 0 0 0 0 0 0 0 0 0 0 0 0 0 0 0 0 0 0 0 0 0 0 0 0 0 0 0 0 0 0 0 0 0 0 0 0 0 0 0 0 0 0 0 0 0 0 0 0 0 0 0 0 0 0 0 0 0 0 0 0 0 0 0  , VHT Capabilities=0|281470681808895 , VHT Operation=0|0|0|0 , HE Capabilities=0|0|0|0|0 , HE Operation=0|0) ns3::WifiMacTrailer ()
r 0.0072045 OfdmRate6Mbps/NodeList/1/DeviceList/0/$ns3::WifiNetDevice/Phy/State/RxOk ns3::WifiMacHeader (MGT_BEACON ToDS=0, FromDS=0, MoreFrag=0, Retry=0, MoreData=0 Duration/ID=0us, DA=ff:ff:ff:ff:ff:ff, SA=00:00:00:00:00:01, BSSID=00:00:00:00:00:01, FragNumber=0, SeqNumber=0) ns3::MgtProbeResponseHeader (ssid=spe-ssid, rates=[*6mbs 9mbs *12mbs 18mbs *24mbs 36mbs 48mbs 54mbs], ERP information=0|0|0, Extended Capabilities=0 , HT Capabilities=0|0|0|0|0 0 0 0 0 0 0 0 0 0 0 0 0 0 0 0 0 0 0 0 0 0 0 0 0 0 0 0 0 0 0 0 0 0 0 0 0 0 0 0 0 0 0 0 0 0 0 0 0 0 0 0 0 0 0 0 0 0 0 0 0 0 0 0 0 0 0 0 0 0 0 0 0 0 0 0 0  , HT Operation=0|0|0|0|0|0|0|0|0|0|0|0|0|0|0|0|0|0|0 0 0 0 0 0 0 0 0 0 0 0 0 0 0 0 0 0 0 0 0 0 0 0 0 0 0 0 0 0 0 0 0 0 0 0 0 0 0 0 0 0 0 0 0 0 0 0 0 0 0 0 0 0 0 0 0 0 0 0 0 0 0 0 0 0 0 0 0 0 0 0 0 0 0 0 0  , VHT Capabilities=0|281470681808895 , VHT Operation=0|0|0|0 , HE Capabilities=0|0|0|0|0 , HE Operation=0|0) ns3::WifiMacTrailer ()
t 0.1095 /NodeList/2/DeviceList/0/$ns3::WifiNetDevice/Phy/State/Tx OfdmRate6Mbps ns3::WifiMacHeader (MGT_BEACON ToDS=0, FromDS=0, MoreFrag=0, Retry=0, MoreData=0 Duration/ID=0us, DA=ff:ff:ff:ff:ff:ff, SA=00:00:00:00:00:01, BSSID=00:00:00:00:00:01, FragNumber=0, SeqNumber=1) ns3::MgtProbeResponseHeader (ssid=spe-ssid, rates=[*6mbs 9mbs *12mbs 18mbs *24mbs 36mbs 48mbs 54mbs], ERP information=0|0|0, Extended Capabilities=0 , HT Capabilities=0|0|0|0|0 0 0 0 0 0 0 0 0 0 0 0 0 0 0 0 0 0 0 0 0 0 0 0 0 0 0 0 0 0 0 0 0 0 0 0 0 0 0 0 0 0 0 0 0 0 0 0 0 0 0 0 0 0 0 0 0 0 0 0 0 0 0 0 0 0 0 0 0 0 0 0 0 0 0 0 0  , HT Operation=0|0|0|0|0|0|0|0|0|0|0|0|0|0|0|0|0|0|0 0 0 0 0 0 0 0 0 0 0 0 0 0 0 0 0 0 0 0 0 0 0 0 0 0 0 0 0 0 0 0 0 0 0 0 0 0 0 0 0 0 0 0 0 0 0 0 0 0 0 0 0 0 0 0 0 0 0 0 0 0 0 0 0 0 0 0 0 0 0 0 0 0 0 0 0  , VHT Capabilities=0|281470681808895 , VHT Operation=0|0|0|0 , HE Capabilities=0|0|0|0|0 , HE Operation=0|0) ns3::WifiMacTrailer ()
r 0.109604 OfdmRate6Mbps/NodeList/0/DeviceList/0/$ns3::WifiNetDevice/Phy/State/RxOk ns3::WifiMacHeader (MGT_BEACON ToDS=0, FromDS=0, MoreFrag=0, Retry=0, MoreData=0 Duration/ID=0us, DA=ff:ff:ff:ff:ff:ff, SA=00:00:00:00:00:01, BSSID=00:00:00:00:00:01, FragNumber=0, SeqNumber=1) ns3::MgtProbeResponseHeader (ssid=spe-ssid, rates=[*6mbs 9mbs *12mbs 18mbs *24mbs 36mbs 48mbs 54mbs], ERP information=0|0|0, Extended Capabilities=0 , HT Capabilities=0|0|0|0|0 0 0 0 0 0 0 0 0 0 0 0 0 0 0 0 0 0 0 0 0 0 0 0 0 0 0 0 0 0 0 0 0 0 0 0 0 0 0 0 0 0 0 0 0 0 0 0 0 0 0 0 0 0 0 0 0 0 0 0 0 0 0 0 0 0 0 0 0 0 0 0 0 0 0 0 0  , HT Operation=0|0|0|0|0|0|0|0|0|0|0|0|0|0|0|0|0|0|0 0 0 0 0 0 0 0 0 0 0 0 0 0 0 0 0 0 0 0 0 0 0 0 0 0 0 0 0 0 0 0 0 0 0 0 0 0 0 0 0 0 0 0 0 0 0 0 0 0 0 0 0 0 0 0 0 0 0 0 0 0 0 0 0 0 0 0 0 0 0 0 0 0 0 0 0  , VHT Capabilities=0|281470681808895 , VHT Operation=0|0|0|0 , HE Capabilities=0|0|0|0|0 , HE Operation=0|0) ns3::WifiMacTrailer ()
r 0.109604 OfdmRate6Mbps/NodeList/1/DeviceList/0/$ns3::WifiNetDevice/Phy/State/RxOk ns3::WifiMacHeader (MGT_BEACON ToDS=0, FromDS=0, MoreFrag=0, Retry=0, MoreData=0 Duration/ID=0us, DA=ff:ff:ff:ff:ff:ff, SA=00:00:00:00:00:01, BSSID=00:00:00:00:00:01, FragNumber=0, SeqNumber=1) ns3::MgtProbeResponseHeader (ssid=spe-ssid, rates=[*6mbs 9mbs *12mbs 18mbs *24mbs 36mbs 48mbs 54mbs], ERP information=0|0|0, Extended Capabilities=0 , HT Capabilities=0|0|0|0|0 0 0 0 0 0 0 0 0 0 0 0 0 0 0 0 0 0 0 0 0 0 0 0 0 0 0 0 0 0 0 0 0 0 0 0 0 0 0 0 0 0 0 0 0 0 0 0 0 0 0 0 0 0 0 0 0 0 0 0 0 0 0 0 0 0 0 0 0 0 0 0 0 0 0 0 0  , HT Operation=0|0|0|0|0|0|0|0|0|0|0|0|0|0|0|0|0|0|0 0 0 0 0 0 0 0 0 0 0 0 0 0 0 0 0 0 0 0 0 0 0 0 0 0 0 0 0 0 0 0 0 0 0 0 0 0 0 0 0 0 0 0 0 0 0 0 0 0 0 0 0 0 0 0 0 0 0 0 0 0 0 0 0 0 0 0 0 0 0 0 0 0 0 0 0  , VHT Capabilities=0|281470681808895 , VHT Operation=0|0|0|0 , HE Capabilities=0|0|0|0|0 , HE Operation=0|0) ns3::WifiMacTrailer ()
t 0.120034 /NodeList/0/DeviceList/0/$ns3::WifiNetDevice/Phy/State/Tx OfdmRate6Mbps ns3::WifiMacHeader (MGT_ASSOCIATION_REQUEST ToDS=0, FromDS=0, MoreFrag=0, Retry=0, MoreData=0 Duration/ID=60us, DA=00:00:00:00:00:01, SA=00:00:00:00:00:02, BSSID=00:00:00:00:00:01, FragNumber=0, SeqNumber=0) ns3::MgtAssocRequestHeader (ssid=spe-ssid, rates=[6mbs 9mbs 12mbs 18mbs 24mbs 36mbs 48mbs 54mbs], Extended Capabilities=0 , HT Capabilities=0|0|0|0|0 0 0 0 0 0 0 0 0 0 0 0 0 0 0 0 0 0 0 0 0 0 0 0 0 0 0 0 0 0 0 0 0 0 0 0 0 0 0 0 0 0 0 0 0 0 0 0 0 0 0 0 0 0 0 0 0 0 0 0 0 0 0 0 0 0 0 0 0 0 0 0 0 0 0 0 0  , VHT Capabilities=0|281470681808895 , HE Capabilities=0|0|0|0|0) ns3::WifiMacTrailer ()
t 0.120034 /NodeList/1/DeviceList/0/$ns3::WifiNetDevice/Phy/State/Tx OfdmRate6Mbps ns3::WifiMacHeader (MGT_ASSOCIATION_REQUEST ToDS=0, FromDS=0, MoreFrag=0, Retry=0, MoreData=0 Duration/ID=60us, DA=00:00:00:00:00:01, SA=00:00:00:00:00:03, BSSID=00:00:00:00:00:01, FragNumber=0, SeqNumber=0) ns3::MgtAssocRequestHeader (ssid=spe-ssid, rates=[6mbs 9mbs 12mbs 18mbs 24mbs 36mbs 48mbs 54mbs], Extended Capabilities=0 , HT Capabilities=0|0|0|0|0 0 0 0 0 0 0 0 0 0 0 0 0 0 0 0 0 0 0 0 0 0 0 0 0 0 0 0 0 0 0 0 0 0 0 0 0 0 0 0 0 0 0 0 0 0 0 0 0 0 0 0 0 0 0 0 0 0 0 0 0 0 0 0 0 0 0 0 0 0 0 0 0 0 0 0 0  , VHT Capabilities=0|281470681808895 , HE Capabilities=0|0|0|0|0) ns3::WifiMacTrailer ()
t 0.120236 /NodeList/1/DeviceList/0/$ns3::WifiNetDevice/Phy/State/Tx OfdmRate6Mbps ns3::WifiMacHeader (MGT_ASSOCIATION_REQUEST ToDS=0, FromDS=0, MoreFrag=0, Retry=1, MoreData=0 Duration/ID=60us, DA=00:00:00:00:00:01, SA=00:00:00:00:00:03, BSSID=00:00:00:00:00:01, FragNumber=0, SeqNumber=0) ns3::MgtAssocRequestHeader (ssid=spe-ssid, rates=[6mbs 9mbs 12mbs 18mbs 24mbs 36mbs 48mbs 54mbs], Extended Capabilities=0 , HT Capabilities=0|0|0|0|0 0 0 0 0 0 0 0 0 0 0 0 0 0 0 0 0 0 0 0 0 0 0 0 0 0 0 0 0 0 0 0 0 0 0 0 0 0 0 0 0 0 0 0 0 0 0 0 0 0 0 0 0 0 0 0 0 0 0 0 0 0 0 0 0 0 0 0 0 0 0 0 0 0 0 0 0  , VHT Capabilities=0|281470681808895 , HE Capabilities=0|0|0|0|0) ns3::WifiMacTrailer ()
r 0.120332 OfdmRate6Mbps/NodeList/2/DeviceList/0/$ns3::WifiNetDevice/Phy/State/RxOk ns3::WifiMacHeader (MGT_ASSOCIATION_REQUEST ToDS=0, FromDS=0, MoreFrag=0, Retry=1, MoreData=0 Duration/ID=60us, DA=00:00:00:00:00:01, SA=00:00:00:00:00:03, BSSID=00:00:00:00:00:01, FragNumber=0, SeqNumber=0) ns3::MgtAssocRequestHeader (ssid=spe-ssid, rates=[6mbs 9mbs 12mbs 18mbs 24mbs 36mbs 48mbs 54mbs], Extended Capabilities=0 , HT Capabilities=0|0|0|0|0 0 0 0 0 0 0 0 0 0 0 0 0 0 0 0 0 0 0 0 0 0 0 0 0 0 0 0 0 0 0 0 0 0 0 0 0 0 0 0 0 0 0 0 0 0 0 0 0 0 0 0 0 0 0 0 0 0 0 0 0 0 0 0 0 0 0 0 0 0 0 0 0 0 0 0 0  , VHT Capabilities=0|281470681808895 , HE Capabilities=0|0|0|0|0) ns3::WifiMacTrailer ()
t 0.120348 /NodeList/2/DeviceList/0/$ns3::WifiNetDevice/Phy/State/Tx OfdmRate6Mbps ns3::WifiMacHeader (CTL_ACK Duration/ID=0us, RA=00:00:00:00:00:03) ns3::WifiMacTrailer ()
r 0.120393 OfdmRate6Mbps/NodeList/0/DeviceList/0/$ns3::WifiNetDevice/Phy/State/RxOk ns3::WifiMacHeader (CTL_ACK Duration/ID=0us, RA=00:00:00:00:00:03) ns3::WifiMacTrailer ()
r 0.120393 OfdmRate6Mbps/NodeList/1/DeviceList/0/$ns3::WifiNetDevice/Phy/State/RxOk ns3::WifiMacHeader (CTL_ACK Duration/ID=0us, RA=00:00:00:00:00:03) ns3::WifiMacTrailer ()
t 0.120427 /NodeList/2/DeviceList/0/$ns3::WifiNetDevice/Phy/State/Tx OfdmRate6Mbps ns3::WifiMacHeader (MGT_ASSOCIATION_RESPONSE ToDS=0, FromDS=0, MoreFrag=0, Retry=0, MoreData=0 Duration/ID=60us, DA=00:00:00:00:00:03, SA=00:00:00:00:00:01, BSSID=00:00:00:00:00:01, FragNumber=0, SeqNumber=2) ns3::MgtAssocResponseHeader (status code=success, aid=1, rates=[*6mbs 9mbs *12mbs 18mbs *24mbs 36mbs 48mbs 54mbs], ERP information=0|0|0, Extended Capabilities=0 , HT Capabilities=0|0|0|0|0 0 0 0 0 0 0 0 0 0 0 0 0 0 0 0 0 0 0 0 0 0 0 0 0 0 0 0 0 0 0 0 0 0 0 0 0 0 0 0 0 0 0 0 0 0 0 0 0 0 0 0 0 0 0 0 0 0 0 0 0 0 0 0 0 0 0 0 0 0 0 0 0 0 0 0 0  , HT Operation=0|0|0|0|0|0|0|0|0|0|0|0|0|0|0|0|0|0|0 0 0 0 0 0 0 0 0 0 0 0 0 0 0 0 0 0 0 0 0 0 0 0 0 0 0 0 0 0 0 0 0 0 0 0 0 0 0 0 0 0 0 0 0 0 0 0 0 0 0 0 0 0 0 0 0 0 0 0 0 0 0 0 0 0 0 0 0 0 0 0 0 0 0 0 0  , VHT Capabilities=0|281470681808895 , VHT Operation=0|0|0|0 , HE Capabilities=0|0|0|0|0 , HE Operation=0|0) ns3::WifiMacTrailer ()
r 0.120511 OfdmRate6Mbps/NodeList/0/DeviceList/0/$ns3::WifiNetDevice/Phy/State/RxOk ns3::WifiMacHeader (MGT_ASSOCIATION_RESPONSE ToDS=0, FromDS=0, MoreFrag=0, Retry=0, MoreData=0 Duration/ID=60us, DA=00:00:00:00:00:03, SA=00:00:00:00:00:01, BSSID=00:00:00:00:00:01, FragNumber=0, SeqNumber=2) ns3::MgtAssocResponseHeader (status code=success, aid=1, rates=[*6mbs 9mbs *12mbs 18mbs *24mbs 36mbs 48mbs 54mbs], ERP information=0|0|0, Extended Capabilities=0 , HT Capabilities=0|0|0|0|0 0 0 0 0 0 0 0 0 0 0 0 0 0 0 0 0 0 0 0 0 0 0 0 0 0 0 0 0 0 0 0 0 0 0 0 0 0 0 0 0 0 0 0 0 0 0 0 0 0 0 0 0 0 0 0 0 0 0 0 0 0 0 0 0 0 0 0 0 0 0 0 0 0 0 0 0  , HT Operation=0|0|0|0|0|0|0|0|0|0|0|0|0|0|0|0|0|0|0 0 0 0 0 0 0 0 0 0 0 0 0 0 0 0 0 0 0 0 0 0 0 0 0 0 0 0 0 0 0 0 0 0 0 0 0 0 0 0 0 0 0 0 0 0 0 0 0 0 0 0 0 0 0 0 0 0 0 0 0 0 0 0 0 0 0 0 0 0 0 0 0 0 0 0 0  , VHT Capabilities=0|281470681808895 , VHT Operation=0|0|0|0 , HE Capabilities=0|0|0|0|0 , HE Operation=0|0) ns3::WifiMacTrailer ()
r 0.120511 OfdmRate6Mbps/NodeList/1/DeviceList/0/$ns3::WifiNetDevice/Phy/State/RxOk ns3::WifiMacHeader (MGT_ASSOCIATION_RESPONSE ToDS=0, FromDS=0, MoreFrag=0, Retry=0, MoreData=0 Duration/ID=60us, DA=00:00:00:00:00:03, SA=00:00:00:00:00:01, BSSID=00:00:00:00:00:01, FragNumber=0, SeqNumber=2) ns3::MgtAssocResponseHeader (status code=success, aid=1, rates=[*6mbs 9mbs *12mbs 18mbs *24mbs 36mbs 48mbs 54mbs], ERP information=0|0|0, Extended Capabilities=0 , HT Capabilities=0|0|0|0|0 0 0 0 0 0 0 0 0 0 0 0 0 0 0 0 0 0 0 0 0 0 0 0 0 0 0 0 0 0 0 0 0 0 0 0 0 0 0 0 0 0 0 0 0 0 0 0 0 0 0 0 0 0 0 0 0 0 0 0 0 0 0 0 0 0 0 0 0 0 0 0 0 0 0 0 0  , HT Operation=0|0|0|0|0|0|0|0|0|0|0|0|0|0|0|0|0|0|0 0 0 0 0 0 0 0 0 0 0 0 0 0 0 0 0 0 0 0 0 0 0 0 0 0 0 0 0 0 0 0 0 0 0 0 0 0 0 0 0 0 0 0 0 0 0 0 0 0 0 0 0 0 0 0 0 0 0 0 0 0 0 0 0 0 0 0 0 0 0 0 0 0 0 0 0  , VHT Capabilities=0|281470681808895 , VHT Operation=0|0|0|0 , HE Capabilities=0|0|0|0|0 , HE Operation=0|0) ns3::WifiMacTrailer ()
t 0.120527 /NodeList/1/DeviceList/0/$ns3::WifiNetDevice/Phy/State/Tx OfdmRate6Mbps ns3::WifiMacHeader (CTL_ACK Duration/ID=0us, RA=00:00:00:00:00:01) ns3::WifiMacTrailer ()
r 0.120571 OfdmRate6Mbps/NodeList/2/DeviceList/0/$ns3::WifiNetDevice/Phy/State/RxOk ns3::WifiMacHeader (CTL_ACK Duration/ID=0us, RA=00:00:00:00:00:01) ns3::WifiMacTrailer ()
t 0.120623 /NodeList/0/DeviceList/0/$ns3::WifiNetDevice/Phy/State/Tx OfdmRate6Mbps ns3::WifiMacHeader (MGT_ASSOCIATION_REQUEST ToDS=0, FromDS=0, MoreFrag=0, Retry=1, MoreData=0 Duration/ID=60us, DA=00:00:00:00:00:01, SA=00:00:00:00:00:02, BSSID=00:00:00:00:00:01, FragNumber=0, SeqNumber=0) ns3::MgtAssocRequestHeader (ssid=spe-ssid, rates=[6mbs 9mbs 12mbs 18mbs 24mbs 36mbs 48mbs 54mbs], Extended Capabilities=0 , HT Capabilities=0|0|0|0|0 0 0 0 0 0 0 0 0 0 0 0 0 0 0 0 0 0 0 0 0 0 0 0 0 0 0 0 0 0 0 0 0 0 0 0 0 0 0 0 0 0 0 0 0 0 0 0 0 0 0 0 0 0 0 0 0 0 0 0 0 0 0 0 0 0 0 0 0 0 0 0 0 0 0 0 0  , VHT Capabilities=0|281470681808895 , HE Capabilities=0|0|0|0|0) ns3::WifiMacTrailer ()
r 0.120719 OfdmRate6Mbps/NodeList/2/DeviceList/0/$ns3::WifiNetDevice/Phy/State/RxOk ns3::WifiMacHeader (MGT_ASSOCIATION_REQUEST ToDS=0, FromDS=0, MoreFrag=0, Retry=1, MoreData=0 Duration/ID=60us, DA=00:00:00:00:00:01, SA=00:00:00:00:00:02, BSSID=00:00:00:00:00:01, FragNumber=0, SeqNumber=0) ns3::MgtAssocRequestHeader (ssid=spe-ssid, rates=[6mbs 9mbs 12mbs 18mbs 24mbs 36mbs 48mbs 54mbs], Extended Capabilities=0 , HT Capabilities=0|0|0|0|0 0 0 0 0 0 0 0 0 0 0 0 0 0 0 0 0 0 0 0 0 0 0 0 0 0 0 0 0 0 0 0 0 0 0 0 0 0 0 0 0 0 0 0 0 0 0 0 0 0 0 0 0 0 0 0 0 0 0 0 0 0 0 0 0 0 0 0 0 0 0 0 0 0 0 0 0  , VHT Capabilities=0|281470681808895 , HE Capabilities=0|0|0|0|0) ns3::WifiMacTrailer ()
t 0.120735 /NodeList/2/DeviceList/0/$ns3::WifiNetDevice/Phy/State/Tx OfdmRate6Mbps ns3::WifiMacHeader (CTL_ACK Duration/ID=0us, RA=00:00:00:00:00:02) ns3::WifiMacTrailer ()
r 0.12078 OfdmRate6Mbps/NodeList/0/DeviceList/0/$ns3::WifiNetDevice/Phy/State/RxOk ns3::WifiMacHeader (CTL_ACK Duration/ID=0us, RA=00:00:00:00:00:02) ns3::WifiMacTrailer ()
r 0.12078 OfdmRate6Mbps/NodeList/1/DeviceList/0/$ns3::WifiNetDevice/Phy/State/RxOk ns3::WifiMacHeader (CTL_ACK Duration/ID=0us, RA=00:00:00:00:00:02) ns3::WifiMacTrailer ()
t 0.120858 /NodeList/2/DeviceList/0/$ns3::WifiNetDevice/Phy/State/Tx OfdmRate6Mbps ns3::WifiMacHeader (MGT_ASSOCIATION_RESPONSE ToDS=0, FromDS=0, MoreFrag=0, Retry=0, MoreData=0 Duration/ID=60us, DA=00:00:00:00:00:02, SA=00:00:00:00:00:01, BSSID=00:00:00:00:00:01, FragNumber=0, SeqNumber=3) ns3::MgtAssocResponseHeader (status code=success, aid=2, rates=[*6mbs 9mbs *12mbs 18mbs *24mbs 36mbs 48mbs 54mbs], ERP information=0|0|0, Extended Capabilities=0 , HT Capabilities=0|0|0|0|0 0 0 0 0 0 0 0 0 0 0 0 0 0 0 0 0 0 0 0 0 0 0 0 0 0 0 0 0 0 0 0 0 0 0 0 0 0 0 0 0 0 0 0 0 0 0 0 0 0 0 0 0 0 0 0 0 0 0 0 0 0 0 0 0 0 0 0 0 0 0 0 0 0 0 0 0  , HT Operation=0|0|0|0|0|0|0|0|0|0|0|0|0|0|0|0|0|0|0 0 0 0 0 0 0 0 0 0 0 0 0 0 0 0 0 0 0 0 0 0 0 0 0 0 0 0 0 0 0 0 0 0 0 0 0 0 0 0 0 0 0 0 0 0 0 0 0 0 0 0 0 0 0 0 0 0 0 0 0 0 0 0 0 0 0 0 0 0 0 0 0 0 0 0 0  , VHT Capabilities=0|281470681808895 , VHT Operation=0|0|0|0 , HE Capabilities=0|0|0|0|0 , HE Operation=0|0) ns3::WifiMacTrailer ()
r 0.120943 OfdmRate6Mbps/NodeList/0/DeviceList/0/$ns3::WifiNetDevice/Phy/State/RxOk ns3::WifiMacHeader (MGT_ASSOCIATION_RESPONSE ToDS=0, FromDS=0, MoreFrag=0, Retry=0, MoreData=0 Duration/ID=60us, DA=00:00:00:00:00:02, SA=00:00:00:00:00:01, BSSID=00:00:00:00:00:01, FragNumber=0, SeqNumber=3) ns3::MgtAssocResponseHeader (status code=success, aid=2, rates=[*6mbs 9mbs *12mbs 18mbs *24mbs 36mbs 48mbs 54mbs], ERP information=0|0|0, Extended Capabilities=0 , HT Capabilities=0|0|0|0|0 0 0 0 0 0 0 0 0 0 0 0 0 0 0 0 0 0 0 0 0 0 0 0 0 0 0 0 0 0 0 0 0 0 0 0 0 0 0 0 0 0 0 0 0 0 0 0 0 0 0 0 0 0 0 0 0 0 0 0 0 0 0 0 0 0 0 0 0 0 0 0 0 0 0 0 0  , HT Operation=0|0|0|0|0|0|0|0|0|0|0|0|0|0|0|0|0|0|0 0 0 0 0 0 0 0 0 0 0 0 0 0 0 0 0 0 0 0 0 0 0 0 0 0 0 0 0 0 0 0 0 0 0 0 0 0 0 0 0 0 0 0 0 0 0 0 0 0 0 0 0 0 0 0 0 0 0 0 0 0 0 0 0 0 0 0 0 0 0 0 0 0 0 0 0  , VHT Capabilities=0|281470681808895 , VHT Operation=0|0|0|0 , HE Capabilities=0|0|0|0|0 , HE Operation=0|0) ns3::WifiMacTrailer ()
r 0.120943 OfdmRate6Mbps/NodeList/1/DeviceList/0/$ns3::WifiNetDevice/Phy/State/RxOk ns3::WifiMacHeader (MGT_ASSOCIATION_RESPONSE ToDS=0, FromDS=0, MoreFrag=0, Retry=0, MoreData=0 Duration/ID=60us, DA=00:00:00:00:00:02, SA=00:00:00:00:00:01, BSSID=00:00:00:00:00:01, FragNumber=0, SeqNumber=3) ns3::MgtAssocResponseHeader (status code=success, aid=2, rates=[*6mbs 9mbs *12mbs 18mbs *24mbs 36mbs 48mbs 54mbs], ERP information=0|0|0, Extended Capabilities=0 , HT Capabilities=0|0|0|0|0 0 0 0 0 0 0 0 0 0 0 0 0 0 0 0 0 0 0 0 0 0 0 0 0 0 0 0 0 0 0 0 0 0 0 0 0 0 0 0 0 0 0 0 0 0 0 0 0 0 0 0 0 0 0 0 0 0 0 0 0 0 0 0 0 0 0 0 0 0 0 0 0 0 0 0 0  , HT Operation=0|0|0|0|0|0|0|0|0|0|0|0|0|0|0|0|0|0|0 0 0 0 0 0 0 0 0 0 0 0 0 0 0 0 0 0 0 0 0 0 0 0 0 0 0 0 0 0 0 0 0 0 0 0 0 0 0 0 0 0 0 0 0 0 0 0 0 0 0 0 0 0 0 0 0 0 0 0 0 0 0 0 0 0 0 0 0 0 0 0 0 0 0 0 0  , VHT Capabilities=0|281470681808895 , VHT Operation=0|0|0|0 , HE Capabilities=0|0|0|0|0 , HE Operation=0|0) ns3::WifiMacTrailer ()
t 0.120959 /NodeList/0/DeviceList/0/$ns3::WifiNetDevice/Phy/State/Tx OfdmRate6Mbps ns3::WifiMacHeader (CTL_ACK Duration/ID=0us, RA=00:00:00:00:00:01) ns3::WifiMacTrailer ()
r 0.121003 OfdmRate6Mbps/NodeList/2/DeviceList/0/$ns3::WifiNetDevice/Phy/State/RxOk ns3::WifiMacHeader (CTL_ACK Duration/ID=0us, RA=00:00:00:00:00:01) ns3::WifiMacTrailer ()
t 0.2119 /NodeList/2/DeviceList/0/$ns3::WifiNetDevice/Phy/State/Tx OfdmRate6Mbps ns3::WifiMacHeader (MGT_BEACON ToDS=0, FromDS=0, MoreFrag=0, Retry=0, MoreData=0 Duration/ID=0us, DA=ff:ff:ff:ff:ff:ff, SA=00:00:00:00:00:01, BSSID=00:00:00:00:00:01, FragNumber=0, SeqNumber=4) ns3::MgtProbeResponseHeader (ssid=spe-ssid, rates=[*6mbs 9mbs *12mbs 18mbs *24mbs 36mbs 48mbs 54mbs], ERP information=0|0|0, Extended Capabilities=0 , HT Capabilities=0|0|0|0|0 0 0 0 0 0 0 0 0 0 0 0 0 0 0 0 0 0 0 0 0 0 0 0 0 0 0 0 0 0 0 0 0 0 0 0 0 0 0 0 0 0 0 0 0 0 0 0 0 0 0 0 0 0 0 0 0 0 0 0 0 0 0 0 0 0 0 0 0 0 0 0 0 0 0 0 0  , HT Operation=0|0|0|0|0|0|0|0|0|0|0|0|0|0|0|0|0|0|0 0 0 0 0 0 0 0 0 0 0 0 0 0 0 0 0 0 0 0 0 0 0 0 0 0 0 0 0 0 0 0 0 0 0 0 0 0 0 0 0 0 0 0 0 0 0 0 0 0 0 0 0 0 0 0 0 0 0 0 0 0 0 0 0 0 0 0 0 0 0 0 0 0 0 0 0  , VHT Capabilities=0|281470681808895 , VHT Operation=0|0|0|0 , HE Capabilities=0|0|0|0|0 , HE Operation=0|0) ns3::WifiMacTrailer ()
r 0.212005 OfdmRate6Mbps/NodeList/0/DeviceList/0/$ns3::WifiNetDevice/Phy/State/RxOk ns3::WifiMacHeader (MGT_BEACON ToDS=0, FromDS=0, MoreFrag=0, Retry=0, MoreData=0 Duration/ID=0us, DA=ff:ff:ff:ff:ff:ff, SA=00:00:00:00:00:01, BSSID=00:00:00:00:00:01, FragNumber=0, SeqNumber=4) ns3::MgtProbeResponseHeader (ssid=spe-ssid, rates=[*6mbs 9mbs *12mbs 18mbs *24mbs 36mbs 48mbs 54mbs], ERP information=0|0|0, Extended Capabilities=0 , HT Capabilities=0|0|0|0|0 0 0 0 0 0 0 0 0 0 0 0 0 0 0 0 0 0 0 0 0 0 0 0 0 0 0 0 0 0 0 0 0 0 0 0 0 0 0 0 0 0 0 0 0 0 0 0 0 0 0 0 0 0 0 0 0 0 0 0 0 0 0 0 0 0 0 0 0 0 0 0 0 0 0 0 0  , HT Operation=0|0|0|0|0|0|0|0|0|0|0|0|0|0|0|0|0|0|0 0 0 0 0 0 0 0 0 0 0 0 0 0 0 0 0 0 0 0 0 0 0 0 0 0 0 0 0 0 0 0 0 0 0 0 0 0 0 0 0 0 0 0 0 0 0 0 0 0 0 0 0 0 0 0 0 0 0 0 0 0 0 0 0 0 0 0 0 0 0 0 0 0 0 0 0  , VHT Capabilities=0|281470681808895 , VHT Operation=0|0|0|0 , HE Capabilities=0|0|0|0|0 , HE Operation=0|0) ns3::WifiMacTrailer ()
r 0.212005 OfdmRate6Mbps/NodeList/1/DeviceList/0/$ns3::WifiNetDevice/Phy/State/RxOk ns3::WifiMacHeader (MGT_BEACON ToDS=0, FromDS=0, MoreFrag=0, Retry=0, MoreData=0 Duration/ID=0us, DA=ff:ff:ff:ff:ff:ff, SA=00:00:00:00:00:01, BSSID=00:00:00:00:00:01, FragNumber=0, SeqNumber=4) ns3::MgtProbeResponseHeader (ssid=spe-ssid, rates=[*6mbs 9mbs *12mbs 18mbs *24mbs 36mbs 48mbs 54mbs], ERP information=0|0|0, Extended Capabilities=0 , HT Capabilities=0|0|0|0|0 0 0 0 0 0 0 0 0 0 0 0 0 0 0 0 0 0 0 0 0 0 0 0 0 0 0 0 0 0 0 0 0 0 0 0 0 0 0 0 0 0 0 0 0 0 0 0 0 0 0 0 0 0 0 0 0 0 0 0 0 0 0 0 0 0 0 0 0 0 0 0 0 0 0 0 0  , HT Operation=0|0|0|0|0|0|0|0|0|0|0|0|0|0|0|0|0|0|0 0 0 0 0 0 0 0 0 0 0 0 0 0 0 0 0 0 0 0 0 0 0 0 0 0 0 0 0 0 0 0 0 0 0 0 0 0 0 0 0 0 0 0 0 0 0 0 0 0 0 0 0 0 0 0 0 0 0 0 0 0 0 0 0 0 0 0 0 0 0 0 0 0 0 0 0  , VHT Capabilities=0|281470681808895 , VHT Operation=0|0|0|0 , HE Capabilities=0|0|0|0|0 , HE Operation=0|0) ns3::WifiMacTrailer ()
t 0.3143 /NodeList/2/DeviceList/0/$ns3::WifiNetDevice/Phy/State/Tx OfdmRate6Mbps ns3::WifiMacHeader (MGT_BEACON ToDS=0, FromDS=0, MoreFrag=0, Retry=0, MoreData=0 Duration/ID=0us, DA=ff:ff:ff:ff:ff:ff, SA=00:00:00:00:00:01, BSSID=00:00:00:00:00:01, FragNumber=0, SeqNumber=5) ns3::MgtProbeResponseHeader (ssid=spe-ssid, rates=[*6mbs 9mbs *12mbs 18mbs *24mbs 36mbs 48mbs 54mbs], ERP information=0|0|0, Extended Capabilities=0 , HT Capabilities=0|0|0|0|0 0 0 0 0 0 0 0 0 0 0 0 0 0 0 0 0 0 0 0 0 0 0 0 0 0 0 0 0 0 0 0 0 0 0 0 0 0 0 0 0 0 0 0 0 0 0 0 0 0 0 0 0 0 0 0 0 0 0 0 0 0 0 0 0 0 0 0 0 0 0 0 0 0 0 0 0  , HT Operation=0|0|0|0|0|0|0|0|0|0|0|0|0|0|0|0|0|0|0 0 0 0 0 0 0 0 0 0 0 0 0 0 0 0 0 0 0 0 0 0 0 0 0 0 0 0 0 0 0 0 0 0 0 0 0 0 0 0 0 0 0 0 0 0 0 0 0 0 0 0 0 0 0 0 0 0 0 0 0 0 0 0 0 0 0 0 0 0 0 0 0 0 0 0 0  , VHT Capabilities=0|281470681808895 , VHT Operation=0|0|0|0 , HE Capabilities=0|0|0|0|0 , HE Operation=0|0) ns3::WifiMacTrailer ()
r 0.314404 OfdmRate6Mbps/NodeList/0/DeviceList/0/$ns3::WifiNetDevice/Phy/State/RxOk ns3::WifiMacHeader (MGT_BEACON ToDS=0, FromDS=0, MoreFrag=0, Retry=0, MoreData=0 Duration/ID=0us, DA=ff:ff:ff:ff:ff:ff, SA=00:00:00:00:00:01, BSSID=00:00:00:00:00:01, FragNumber=0, SeqNumber=5) ns3::MgtProbeResponseHeader (ssid=spe-ssid, rates=[*6mbs 9mbs *12mbs 18mbs *24mbs 36mbs 48mbs 54mbs], ERP information=0|0|0, Extended Capabilities=0 , HT Capabilities=0|0|0|0|0 0 0 0 0 0 0 0 0 0 0 0 0 0 0 0 0 0 0 0 0 0 0 0 0 0 0 0 0 0 0 0 0 0 0 0 0 0 0 0 0 0 0 0 0 0 0 0 0 0 0 0 0 0 0 0 0 0 0 0 0 0 0 0 0 0 0 0 0 0 0 0 0 0 0 0 0  , HT Operation=0|0|0|0|0|0|0|0|0|0|0|0|0|0|0|0|0|0|0 0 0 0 0 0 0 0 0 0 0 0 0 0 0 0 0 0 0 0 0 0 0 0 0 0 0 0 0 0 0 0 0 0 0 0 0 0 0 0 0 0 0 0 0 0 0 0 0 0 0 0 0 0 0 0 0 0 0 0 0 0 0 0 0 0 0 0 0 0 0 0 0 0 0 0 0  , VHT Capabilities=0|281470681808895 , VHT Operation=0|0|0|0 , HE Capabilities=0|0|0|0|0 , HE Operation=0|0) ns3::WifiMacTrailer ()
r 0.314404 OfdmRate6Mbps/NodeList/1/DeviceList/0/$ns3::WifiNetDevice/Phy/State/RxOk ns3::WifiMacHeader (MGT_BEACON ToDS=0, FromDS=0, MoreFrag=0, Retry=0, MoreData=0 Duration/ID=0us, DA=ff:ff:ff:ff:ff:ff, SA=00:00:00:00:00:01, BSSID=00:00:00:00:00:01, FragNumber=0, SeqNumber=5) ns3::MgtProbeResponseHeader (ssid=spe-ssid, rates=[*6mbs 9mbs *12mbs 18mbs *24mbs 36mbs 48mbs 54mbs], ERP information=0|0|0, Extended Capabilities=0 , HT Capabilities=0|0|0|0|0 0 0 0 0 0 0 0 0 0 0 0 0 0 0 0 0 0 0 0 0 0 0 0 0 0 0 0 0 0 0 0 0 0 0 0 0 0 0 0 0 0 0 0 0 0 0 0 0 0 0 0 0 0 0 0 0 0 0 0 0 0 0 0 0 0 0 0 0 0 0 0 0 0 0 0 0  , HT Operation=0|0|0|0|0|0|0|0|0|0|0|0|0|0|0|0|0|0|0 0 0 0 0 0 0 0 0 0 0 0 0 0 0 0 0 0 0 0 0 0 0 0 0 0 0 0 0 0 0 0 0 0 0 0 0 0 0 0 0 0 0 0 0 0 0 0 0 0 0 0 0 0 0 0 0 0 0 0 0 0 0 0 0 0 0 0 0 0 0 0 0 0 0 0 0  , VHT Capabilities=0|281470681808895 , VHT Operation=0|0|0|0 , HE Capabilities=0|0|0|0|0 , HE Operation=0|0) ns3::WifiMacTrailer ()
t 0.4167 /NodeList/2/DeviceList/0/$ns3::WifiNetDevice/Phy/State/Tx OfdmRate6Mbps ns3::WifiMacHeader (MGT_BEACON ToDS=0, FromDS=0, MoreFrag=0, Retry=0, MoreData=0 Duration/ID=0us, DA=ff:ff:ff:ff:ff:ff, SA=00:00:00:00:00:01, BSSID=00:00:00:00:00:01, FragNumber=0, SeqNumber=6) ns3::MgtProbeResponseHeader (ssid=spe-ssid, rates=[*6mbs 9mbs *12mbs 18mbs *24mbs 36mbs 48mbs 54mbs], ERP information=0|0|0, Extended Capabilities=0 , HT Capabilities=0|0|0|0|0 0 0 0 0 0 0 0 0 0 0 0 0 0 0 0 0 0 0 0 0 0 0 0 0 0 0 0 0 0 0 0 0 0 0 0 0 0 0 0 0 0 0 0 0 0 0 0 0 0 0 0 0 0 0 0 0 0 0 0 0 0 0 0 0 0 0 0 0 0 0 0 0 0 0 0 0  , HT Operation=0|0|0|0|0|0|0|0|0|0|0|0|0|0|0|0|0|0|0 0 0 0 0 0 0 0 0 0 0 0 0 0 0 0 0 0 0 0 0 0 0 0 0 0 0 0 0 0 0 0 0 0 0 0 0 0 0 0 0 0 0 0 0 0 0 0 0 0 0 0 0 0 0 0 0 0 0 0 0 0 0 0 0 0 0 0 0 0 0 0 0 0 0 0 0  , VHT Capabilities=0|281470681808895 , VHT Operation=0|0|0|0 , HE Capabilities=0|0|0|0|0 , HE Operation=0|0) ns3::WifiMacTrailer ()
r 0.416805 OfdmRate6Mbps/NodeList/0/DeviceList/0/$ns3::WifiNetDevice/Phy/State/RxOk ns3::WifiMacHeader (MGT_BEACON ToDS=0, FromDS=0, MoreFrag=0, Retry=0, MoreData=0 Duration/ID=0us, DA=ff:ff:ff:ff:ff:ff, SA=00:00:00:00:00:01, BSSID=00:00:00:00:00:01, FragNumber=0, SeqNumber=6) ns3::MgtProbeResponseHeader (ssid=spe-ssid, rates=[*6mbs 9mbs *12mbs 18mbs *24mbs 36mbs 48mbs 54mbs], ERP information=0|0|0, Extended Capabilities=0 , HT Capabilities=0|0|0|0|0 0 0 0 0 0 0 0 0 0 0 0 0 0 0 0 0 0 0 0 0 0 0 0 0 0 0 0 0 0 0 0 0 0 0 0 0 0 0 0 0 0 0 0 0 0 0 0 0 0 0 0 0 0 0 0 0 0 0 0 0 0 0 0 0 0 0 0 0 0 0 0 0 0 0 0 0  , HT Operation=0|0|0|0|0|0|0|0|0|0|0|0|0|0|0|0|0|0|0 0 0 0 0 0 0 0 0 0 0 0 0 0 0 0 0 0 0 0 0 0 0 0 0 0 0 0 0 0 0 0 0 0 0 0 0 0 0 0 0 0 0 0 0 0 0 0 0 0 0 0 0 0 0 0 0 0 0 0 0 0 0 0 0 0 0 0 0 0 0 0 0 0 0 0 0  , VHT Capabilities=0|281470681808895 , VHT Operation=0|0|0|0 , HE Capabilities=0|0|0|0|0 , HE Operation=0|0) ns3::WifiMacTrailer ()
r 0.416805 OfdmRate6Mbps/NodeList/1/DeviceList/0/$ns3::WifiNetDevice/Phy/State/RxOk ns3::WifiMacHeader (MGT_BEACON ToDS=0, FromDS=0, MoreFrag=0, Retry=0, MoreData=0 Duration/ID=0us, DA=ff:ff:ff:ff:ff:ff, SA=00:00:00:00:00:01, BSSID=00:00:00:00:00:01, FragNumber=0, SeqNumber=6) ns3::MgtProbeResponseHeader (ssid=spe-ssid, rates=[*6mbs 9mbs *12mbs 18mbs *24mbs 36mbs 48mbs 54mbs], ERP information=0|0|0, Extended Capabilities=0 , HT Capabilities=0|0|0|0|0 0 0 0 0 0 0 0 0 0 0 0 0 0 0 0 0 0 0 0 0 0 0 0 0 0 0 0 0 0 0 0 0 0 0 0 0 0 0 0 0 0 0 0 0 0 0 0 0 0 0 0 0 0 0 0 0 0 0 0 0 0 0 0 0 0 0 0 0 0 0 0 0 0 0 0 0  , HT Operation=0|0|0|0|0|0|0|0|0|0|0|0|0|0|0|0|0|0|0 0 0 0 0 0 0 0 0 0 0 0 0 0 0 0 0 0 0 0 0 0 0 0 0 0 0 0 0 0 0 0 0 0 0 0 0 0 0 0 0 0 0 0 0 0 0 0 0 0 0 0 0 0 0 0 0 0 0 0 0 0 0 0 0 0 0 0 0 0 0 0 0 0 0 0 0  , VHT Capabilities=0|281470681808895 , VHT Operation=0|0|0|0 , HE Capabilities=0|0|0|0|0 , HE Operation=0|0) ns3::WifiMacTrailer ()
t 0.5191 /NodeList/2/DeviceList/0/$ns3::WifiNetDevice/Phy/State/Tx OfdmRate6Mbps ns3::WifiMacHeader (MGT_BEACON ToDS=0, FromDS=0, MoreFrag=0, Retry=0, MoreData=0 Duration/ID=0us, DA=ff:ff:ff:ff:ff:ff, SA=00:00:00:00:00:01, BSSID=00:00:00:00:00:01, FragNumber=0, SeqNumber=7) ns3::MgtProbeResponseHeader (ssid=spe-ssid, rates=[*6mbs 9mbs *12mbs 18mbs *24mbs 36mbs 48mbs 54mbs], ERP information=0|0|0, Extended Capabilities=0 , HT Capabilities=0|0|0|0|0 0 0 0 0 0 0 0 0 0 0 0 0 0 0 0 0 0 0 0 0 0 0 0 0 0 0 0 0 0 0 0 0 0 0 0 0 0 0 0 0 0 0 0 0 0 0 0 0 0 0 0 0 0 0 0 0 0 0 0 0 0 0 0 0 0 0 0 0 0 0 0 0 0 0 0 0  , HT Operation=0|0|0|0|0|0|0|0|0|0|0|0|0|0|0|0|0|0|0 0 0 0 0 0 0 0 0 0 0 0 0 0 0 0 0 0 0 0 0 0 0 0 0 0 0 0 0 0 0 0 0 0 0 0 0 0 0 0 0 0 0 0 0 0 0 0 0 0 0 0 0 0 0 0 0 0 0 0 0 0 0 0 0 0 0 0 0 0 0 0 0 0 0 0 0  , VHT Capabilities=0|281470681808895 , VHT Operation=0|0|0|0 , HE Capabilities=0|0|0|0|0 , HE Operation=0|0) ns3::WifiMacTrailer ()
r 0.519204 OfdmRate6Mbps/NodeList/0/DeviceList/0/$ns3::WifiNetDevice/Phy/State/RxOk ns3::WifiMacHeader (MGT_BEACON ToDS=0, FromDS=0, MoreFrag=0, Retry=0, MoreData=0 Duration/ID=0us, DA=ff:ff:ff:ff:ff:ff, SA=00:00:00:00:00:01, BSSID=00:00:00:00:00:01, FragNumber=0, SeqNumber=7) ns3::MgtProbeResponseHeader (ssid=spe-ssid, rates=[*6mbs 9mbs *12mbs 18mbs *24mbs 36mbs 48mbs 54mbs], ERP information=0|0|0, Extended Capabilities=0 , HT Capabilities=0|0|0|0|0 0 0 0 0 0 0 0 0 0 0 0 0 0 0 0 0 0 0 0 0 0 0 0 0 0 0 0 0 0 0 0 0 0 0 0 0 0 0 0 0 0 0 0 0 0 0 0 0 0 0 0 0 0 0 0 0 0 0 0 0 0 0 0 0 0 0 0 0 0 0 0 0 0 0 0 0  , HT Operation=0|0|0|0|0|0|0|0|0|0|0|0|0|0|0|0|0|0|0 0 0 0 0 0 0 0 0 0 0 0 0 0 0 0 0 0 0 0 0 0 0 0 0 0 0 0 0 0 0 0 0 0 0 0 0 0 0 0 0 0 0 0 0 0 0 0 0 0 0 0 0 0 0 0 0 0 0 0 0 0 0 0 0 0 0 0 0 0 0 0 0 0 0 0 0  , VHT Capabilities=0|281470681808895 , VHT Operation=0|0|0|0 , HE Capabilities=0|0|0|0|0 , HE Operation=0|0) ns3::WifiMacTrailer ()
r 0.519204 OfdmRate6Mbps/NodeList/1/DeviceList/0/$ns3::WifiNetDevice/Phy/State/RxOk ns3::WifiMacHeader (MGT_BEACON ToDS=0, FromDS=0, MoreFrag=0, Retry=0, MoreData=0 Duration/ID=0us, DA=ff:ff:ff:ff:ff:ff, SA=00:00:00:00:00:01, BSSID=00:00:00:00:00:01, FragNumber=0, SeqNumber=7) ns3::MgtProbeResponseHeader (ssid=spe-ssid, rates=[*6mbs 9mbs *12mbs 18mbs *24mbs 36mbs 48mbs 54mbs], ERP information=0|0|0, Extended Capabilities=0 , HT Capabilities=0|0|0|0|0 0 0 0 0 0 0 0 0 0 0 0 0 0 0 0 0 0 0 0 0 0 0 0 0 0 0 0 0 0 0 0 0 0 0 0 0 0 0 0 0 0 0 0 0 0 0 0 0 0 0 0 0 0 0 0 0 0 0 0 0 0 0 0 0 0 0 0 0 0 0 0 0 0 0 0 0  , HT Operation=0|0|0|0|0|0|0|0|0|0|0|0|0|0|0|0|0|0|0 0 0 0 0 0 0 0 0 0 0 0 0 0 0 0 0 0 0 0 0 0 0 0 0 0 0 0 0 0 0 0 0 0 0 0 0 0 0 0 0 0 0 0 0 0 0 0 0 0 0 0 0 0 0 0 0 0 0 0 0 0 0 0 0 0 0 0 0 0 0 0 0 0 0 0 0  , VHT Capabilities=0|281470681808895 , VHT Operation=0|0|0|0 , HE Capabilities=0|0|0|0|0 , HE Operation=0|0) ns3::WifiMacTrailer ()
t 0.6215 /NodeList/2/DeviceList/0/$ns3::WifiNetDevice/Phy/State/Tx OfdmRate6Mbps ns3::WifiMacHeader (MGT_BEACON ToDS=0, FromDS=0, MoreFrag=0, Retry=0, MoreData=0 Duration/ID=0us, DA=ff:ff:ff:ff:ff:ff, SA=00:00:00:00:00:01, BSSID=00:00:00:00:00:01, FragNumber=0, SeqNumber=8) ns3::MgtProbeResponseHeader (ssid=spe-ssid, rates=[*6mbs 9mbs *12mbs 18mbs *24mbs 36mbs 48mbs 54mbs], ERP information=0|0|0, Extended Capabilities=0 , HT Capabilities=0|0|0|0|0 0 0 0 0 0 0 0 0 0 0 0 0 0 0 0 0 0 0 0 0 0 0 0 0 0 0 0 0 0 0 0 0 0 0 0 0 0 0 0 0 0 0 0 0 0 0 0 0 0 0 0 0 0 0 0 0 0 0 0 0 0 0 0 0 0 0 0 0 0 0 0 0 0 0 0 0  , HT Operation=0|0|0|0|0|0|0|0|0|0|0|0|0|0|0|0|0|0|0 0 0 0 0 0 0 0 0 0 0 0 0 0 0 0 0 0 0 0 0 0 0 0 0 0 0 0 0 0 0 0 0 0 0 0 0 0 0 0 0 0 0 0 0 0 0 0 0 0 0 0 0 0 0 0 0 0 0 0 0 0 0 0 0 0 0 0 0 0 0 0 0 0 0 0 0  , VHT Capabilities=0|281470681808895 , VHT Operation=0|0|0|0 , HE Capabilities=0|0|0|0|0 , HE Operation=0|0) ns3::WifiMacTrailer ()