t 0.094086 /NodeList/2/DeviceList/0/$ns3::WifiNetDevice/Phy/State/Tx DsssRate1Mbps ns3::WifiMacHeader (MGT_BEACON ToDS=0, FromDS=0, MoreFrag=0, Retry=0, MoreData=0 Duration/ID=0us, DA=ff:ff:ff:ff:ff:ff, SA=00:00:00:00:00:01, BSSID=00:00:00:00:00:01, FragNumber=0, SeqNumber=0) ns3::MgtProbeResponseHeader (ssid=spe-ssid, rates=[*1mbs *2mbs 5mbs 11mbs], ERP information=0|0|0, Extended Capabilities=0 , HT Capabilities=0|0|0|0|0 0 0 0 0 0 0 0 0 0 0 0 0 0 0 0 0 0 0 0 0 0 0 0 0 0 0 0 0 0 0 0 0 0 0 0 0 0 0 0 0 0 0 0 0 0 0 0 0 0 0 0 0 0 0 0 0 0 0 0 0 0 0 0 0 0 0 0 0 0 0 0 0 0 0 0 0  , HT Operation=0|0|0|0|0|0|0|0|0|0|0|0|0|0|0|0|0|0|0 0 0 0 0 0 0 0 0 0 0 0 0 0 0 0 0 0 0 0 0 0 0 0 0 0 0 0 0 0 0 0 0 0 0 0 0 0 0 0 0 0 0 0 0 0 0 0 0 0 0 0 0 0 0 0 0 0 0 0 0 0 0 0 0 0 0 0 0 0 0 0 0 0 0 0 0  , VHT Capabilities=0|281470681808895 , VHT Operation=0|0|0|0 , HE Capabilities=0|0|0|0|0 , HE Operation=0|0) ns3::WifiMacTrailer ()
r 0.0947505 DsssRate1Mbps/NodeList/0/DeviceList/0/$ns3::WifiNetDevice/Phy/State/RxOk ns3::WifiMacHeader (MGT_BEACON ToDS=0, FromDS=0, MoreFrag=0, Retry=0, MoreData=0 Duration/ID=0us, DA=ff:ff:ff:ff:ff:ff, SA=00:00:00:00:00:01, BSSID=00:00:00:00:00:01, FragNumber=0, SeqNumber=0) ns3::MgtProbeResponseHeader (ssid=spe-ssid, rates=[*1mbs *2mbs 5mbs 11mbs], ERP information=0|0|0, Extended Capabilities=0 , HT Capabilities=0|0|0|0|0 0 0 0 0 0 0 0 0 0 0 0 0 0 0 0 0 0 0 0 0 0 0 0 0 0 0 0 0 0 0 0 0 0 0 0 0 0 0 0 0 0 0 0 0 0 0 0 0 0 0 0 0 0 0 0 0 0 0 0 0 0 0 0 0 0 0 0 0 0 0 0 0 0 0 0 0  , HT Operation=0|0|0|0|0|0|0|0|0|0|0|0|0|0|0|0|0|0|0 0 0 0 0 0 0 0 0 0 0 0 0 0 0 0 0 0 0 0 0 0 0 0 0 0 0 0 0 0 0 0 0 0 0 0 0 0 0 0 0 0 0 0 0 0 0 0 0 0 0 0 0 0 0 0 0 0 0 0 0 0 0 0 0 0 0 0 0 0 0 0 0 0 0 0 0  , VHT Capabilities=0|281470681808895 , VHT Operation=0|0|0|0 , HE Capabilities=0|0|0|0|0 , HE Operation=0|0) ns3::WifiMacTrailer ()
r 0.0947505 DsssRate1Mbps/NodeList/1/DeviceList/0/$ns3::WifiNetDevice/Phy/State/RxOk ns3::WifiMacHeader (MGT_BEACON ToDS=0, FromDS=0, MoreFrag=0, Retry=0, MoreData=0 Duration/ID=0us, DA=ff:ff:ff:ff:ff:ff, SA=00:00:00:00:00:01, BSSID=00:00:00:00:00:01, FragNumber=0, SeqNumber=0) ns3::MgtProbeResponseHeader (ssid=spe-ssid, rates=[*1mbs *2mbs 5mbs 11mbs], ERP information=0|0|0, Extended Capabilities=0 , HT Capabilities=0|0|0|0|0 0 0 0 0 0 0 0 0 0 0 0 0 0 0 0 0 0 0 0 0 0 0 0 0 0 0 0 0 0 0 0 0 0 0 0 0 0 0 0 0 0 0 0 0 0 0 0 0 0 0 0 0 0 0 0 0 0 0 0 0 0 0 0 0 0 0 0 0 0 0 0 0 0 0 0 0  , HT Operation=0|0|0|0|0|0|0|0|0|0|0|0|0|0|0|0|0|0|0 0 0 0 0 0 0 0 0 0 0 0 0 0 0 0 0 0 0 0 0 0 0 0 0 0 0 0 0 0 0 0 0 0 0 0 0 0 0 0 0 0 0 0 0 0 0 0 0 0 0 0 0 0 0 0 0 0 0 0 0 0 0 0 0 0 0 0 0 0 0 0 0 0 0 0 0  , VHT Capabilities=0|281470681808895 , VHT Operation=0|0|0|0 , HE Capabilities=0|0|0|0|0 , HE Operation=0|0) ns3::WifiMacTrailer ()
t 0.12005 /NodeList/0/DeviceList/0/$ns3::WifiNetDevice/Phy/State/Tx DsssRate1Mbps ns3::WifiMacHeader (CTL_RTS Duration/ID=1214us, RA=00:00:00:00:00:01, TA=00:00:00:00:00:02) ns3::WifiMacTrailer ()
t 0.12005 /NodeList/1/DeviceList/0/$ns3::WifiNetDevice/Phy/State/Tx DsssRate1Mbps ns3::WifiMacHeader (CTL_RTS Duration/ID=1214us, RA=00:00:00:00:00:01, TA=00:00:00:00:00:03) ns3::WifiMacTrailer ()
t 0.121474 /NodeList/1/DeviceList/0/$ns3::WifiNetDevice/Phy/State/Tx DsssRate1Mbps ns3::WifiMacHeader (CTL_RTS Duration/ID=1214us, RA=00:00:00:00:00:01, TA=00:00:00:00:00:03) ns3::WifiMacTrailer ()
r 0.121827 DsssRate1Mbps/NodeList/2/DeviceList/0/$ns3::WifiNetDevice/Phy/State/RxOk ns3::WifiMacHeader (CTL_RTS Duration/ID=1214us, RA=00:00:00:00:00:01, TA=00:00:00:00:00:03) ns3::WifiMacTrailer ()
t 0.121837 /NodeList/2/DeviceList/0/$ns3::WifiNetDevice/Phy/State/Tx DsssRate1Mbps ns3::WifiMacHeader (CTL_CTS Duration/ID=900us, RA=00:00:00:00:00:03) ns3::WifiMacTrailer ()
r 0.122141 DsssRate1Mbps/NodeList/0/DeviceList/0/$ns3::WifiNetDevice/Phy/State/RxOk ns3::WifiMacHeader (CTL_CTS Duration/ID=900us, RA=00:00:00:00:00:03) ns3::WifiMacTrailer ()
r 0.122141 DsssRate1Mbps/NodeList/1/DeviceList/0/$ns3::WifiNetDevice/Phy/State/RxOk ns3::WifiMacHeader (CTL_CTS Duration/ID=900us, RA=00:00:00:00:00:03) ns3::WifiMacTrailer ()
t 0.122151 /NodeList/1/DeviceList/0/$ns3::WifiNetDevice/Phy/State/Tx DsssRate1Mbps ns3::WifiMacHeader (MGT_ASSOCIATION_REQUEST ToDS=0, FromDS=0, MoreFrag=0, Retry=0, MoreData=0 Duration/ID=314us, DA=00:00:00:00:00:01, SA=00:00:00:00:00:03, BSSID=00:00:00:00:00:01, FragNumber=0, SeqNumber=0) ns3::MgtAssocRequestHeader (ssid=spe-ssid, rates=[1mbs 2mbs 5mbs 11mbs], Extended Capabilities=0 , HT Capabilities=0|0|0|0|0 0 0 0 0 0 0 0 0 0 0 0 0 0 0 0 0 0 0 0 0 0 0 0 0 0 0 0 0 0 0 0 0 0 0 0 0 0 0 0 0 0 0 0 0 0 0 0 0 0 0 0 0 0 0 0 0 0 0 0 0 0 0 0 0 0 0 0 0 0 0 0 0 0 0 0 0  , VHT Capabilities=0|281470681808895 , HE Capabilities=0|0|0|0|0) ns3::WifiMacTrailer ()
r 0.122728 DsssRate1Mbps/NodeList/2/DeviceList/0/$ns3::WifiNetDevice/Phy/State/RxOk ns3::WifiMacHeader (MGT_ASSOCIATION_REQUEST ToDS=0, FromDS=0, MoreFrag=0, Retry=0, MoreData=0 Duration/ID=314us, DA=00:00:00:00:00:01, SA=00:00:00:00:00:03, BSSID=00:00:00:00:00:01, FragNumber=0, SeqNumber=0) ns3::MgtAssocRequestHeader (ssid=spe-ssid, rates=[1mbs 2mbs 5mbs 11mbs], Extended Capabilities=0 , HT Capabilities=0|0|0|0|0 0 0 0 0 0 0 0 0 0 0 0 0 0 0 0 0 0 0 0 0 0 0 0 0 0 0 0 0 0 0 0 0 0 0 0 0 0 0 0 0 0 0 0 0 0 0 0 0 0 0 0 0 0 0 0 0 0 0 0 0 0 0 0 0 0 0 0 0 0 0 0 0 0 0 0 0  , VHT Capabilities=0|281470681808895 , HE Capabilities=0|0|0|0|0) ns3::WifiMacTrailer ()
t 0.122737 /NodeList/2/DeviceList/0/$ns3::WifiNetDevice/Phy/State/Tx DsssRate1Mbps ns3::WifiMacHeader (CTL_ACK Duration/ID=0us, RA=00:00:00:00:00:03) ns3::WifiMacTrailer ()
r 0.123042 DsssRate1Mbps/NodeList/0/DeviceList/0/$ns3::WifiNetDevice/Phy/State/RxOk ns3::WifiMacHeader (CTL_ACK Duration/ID=0us, RA=00:00:00:00:00:03) ns3::WifiMacTrailer ()
r 0.123042 DsssRate1Mbps/NodeList/1/DeviceList/0/$ns3::WifiNetDevice/Phy/State/RxOk ns3::WifiMacHeader (CTL_ACK Duration/ID=0us, RA=00:00:00:00:00:03) ns3::WifiMacTrailer ()
t 0.123092 /NodeList/2/DeviceList/0/$ns3::WifiNetDevice/Phy/State/Tx DsssRate1Mbps ns3::WifiMacHeader (CTL_RTS Duration/ID=1150us, RA=00:00:00:00:00:03, TA=00:00:00:00:00:01) ns3::WifiMacTrailer ()
r 0.123444 DsssRate1Mbps/NodeList/0/DeviceList/0/$ns3::WifiNetDevice/Phy/State/RxOk ns3::WifiMacHeader (CTL_RTS Duration/ID=1150us, RA=00:00:00:00:00:03, TA=00:00:00:00:00:01) ns3::WifiMacTrailer ()
r 0.123444 DsssRate1Mbps/NodeList/1/DeviceList/0/$ns3::WifiNetDevice/Phy/State/RxOk ns3::WifiMacHeader (CTL_RTS Duration/ID=1150us, RA=00:00:00:00:00:03, TA=00:00:00:00:00:01) ns3::WifiMacTrailer ()
t 0.123454 /NodeList/1/DeviceList/0/$ns3::WifiNetDevice/Phy/State/Tx DsssRate1Mbps ns3::WifiMacHeader (CTL_CTS Duration/ID=836us, RA=00:00:00:00:00:01) ns3::WifiMacTrailer ()
r 0.123758 DsssRate1Mbps/NodeList/2/DeviceList/0/$ns3::WifiNetDevice/Phy/State/RxOk ns3::WifiMacHeader (CTL_CTS Duration/ID=836us, RA=00:00:00:00:00:01) ns3::WifiMacTrailer ()
t 0.123769 /NodeList/2/DeviceList/0/$ns3::WifiNetDevice/Phy/State/Tx DsssRate1Mbps ns3::WifiMacHeader (MGT_ASSOCIATION_RESPONSE ToDS=0, FromDS=0, MoreFrag=0, Retry=0, MoreData=0 Duration/ID=314us, DA=00:00:00:00:00:03, SA=00:00:00:00:00:01, BSSID=00:00:00:00:00:01, FragNumber=0, SeqNumber=1) ns3::MgtAssocResponseHeader (status code=success, aid=1, rates=[*1mbs *2mbs 5mbs 11mbs], ERP information=0|0|0, Extended Capabilities=0 , HT Capabilities=0|0|0|0|0 0 0 0 0 0 0 0 0 0 0 0 0 0 0 0 0 0 0 0 0 0 0 0 0 0 0 0 0 0 0 0 0 0 0 0 0 0 0 0 0 0 0 0 0 0 0 0 0 0 0 0 0 0 0 0 0 0 0 0 0 0 0 0 0 0 0 0 0 0 0 0 0 0 0 0 0  , HT Operation=0|0|0|0|0|0|0|0|0|0|0|0|0|0|0|0|0|0|0 0 0 0 0 0 0 0 0 0 0 0 0 0 0 0 0 0 0 0 0 0 0 0 0 0 0 0 0 0 0 0 0 0 0 0 0 0 0 0 0 0 0 0 0 0 0 0 0 0 0 0 0 0 0 0 0 0 0 0 0 0 0 0 0 0 0 0 0 0 0 0 0 0 0 0 0  , VHT Capabilities=0|281470681808895 , VHT Operation=0|0|0|0 , HE Capabilities=0|0|0|0|0 , HE Operation=0|0) ns3::WifiMacTrailer ()
r 0.124281 DsssRate1Mbps/NodeList/0/DeviceList/0/$ns3::WifiNetDevice/Phy/State/RxOk ns3::WifiMacHeader (MGT_ASSOCIATION_RESPONSE ToDS=0, FromDS=0, MoreFrag=0, Retry=0, MoreData=0 Duration/ID=314us, DA=00:00:00:00:00:03, SA=00:00:00:00:00:01, BSSID=00:00:00:00:00:01, FragNumber=0, SeqNumber=1) ns3::MgtAssocResponseHeader (status code=success, aid=1, rates=[*1mbs *2mbs 5mbs 11mbs], ERP information=0|0|0, Extended Capabilities=0 , HT Capabilities=0|0|0|0|0 0 0 0 0 0 0 0 0 0 0 0 0 0 0 0 0 0 0 0 0 0 0 0 0 0 0 0 0 0 0 0 0 0 0 0 0 0 0 0 0 0 0 0 0 0 0 0 0 0 0 0 0 0 0 0 0 0 0 0 0 0 0 0 0 0 0 0 0 0 0 0 0 0 0 0 0  , HT Operation=0|0|0|0|0|0|0|0|0|0|0|0|0|0|0|0|0|0|0 0 0 0 0 0 0 0 0 0 0 0 0 0 0 0 0 0 0 0 0 0 0 0 0 0 0 0 0 0 0 0 0 0 0 0 0 0 0 0 0 0 0 0 0 0 0 0 0 0 0 0 0 0 0 0 0 0 0 0 0 0 0 0 0 0 0 0 0 0 0 0 0 0 0 0 0  , VHT Capabilities=0|281470681808895 , VHT Operation=0|0|0|0 , HE Capabilities=0|0|0|0|0 , HE Operation=0|0) ns3::WifiMacTrailer ()
r 0.124281 DsssRate1Mbps/NodeList/1/DeviceList/0/$ns3::WifiNetDevice/Phy/State/RxOk ns3::WifiMacHeader (MGT_ASSOCIATION_RESPONSE ToDS=0, FromDS=0, MoreFrag=0, Retry=0, MoreData=0 Duration/ID=314us, DA=00:00:00:00:00:03, SA=00:00:00:00:00:01, BSSID=00:00:00:00:00:01, FragNumber=0, SeqNumber=1) ns3::MgtAssocResponseHeader (status code=success, aid=1, rates=[*1mbs *2mbs 5mbs 11mbs], ERP information=0|0|0, Extended Capabilities=0 , HT Capabilities=0|0|0|0|0 0 0 0 0 0 0 0 0 0 0 0 0 0 0 0 0 0 0 0 0 0 0 0 0 0 0 0 0 0 0 0 0 0 0 0 0 0 0 0 0 0 0 0 0 0 0 0 0 0 0 0 0 0 0 0 0 0 0 0 0 0 0 0 0 0 0 0 0 0 0 0 0 0 0 0 0  , HT Operation=0|0|0|0|0|0|0|0|0|0|0|0|0|0|0|0|0|0|0 0 0 0 0 0 0 0 0 0 0 0 0 0 0 0 0 0 0 0 0 0 0 0 0 0 0 0 0 0 0 0 0 0 0 0 0 0 0 0 0 0 0 0 0 0 0 0 0 0 0 0 0 0 0 0 0 0 0 0 0 0 0 0 0 0 0 0 0 0 0 0 0 0 0 0 0  , VHT Capabilities=0|281470681808895 , VHT Operation=0|0|0|0 , HE Capabilities=0|0|0|0|0 , HE Operation=0|0) ns3::WifiMacTrailer ()
t 0.124291 /NodeList/1/DeviceList/0/$ns3::WifiNetDevice/Phy/State/Tx DsssRate1Mbps ns3::WifiMacHeader (CTL_ACK Duration/ID=0us, RA=00:00:00:00:00:01) ns3::WifiMacTrailer ()
r 0.124595 DsssRate1Mbps/NodeList/2/DeviceList/0/$ns3::WifiNetDevice/Phy/State/RxOk ns3::WifiMacHeader (CTL_ACK Duration/ID=0us, RA=00:00:00:00:00:01) ns3::WifiMacTrailer ()
t 0.124705 /NodeList/0/DeviceList/0/$ns3::WifiNetDevice/Phy/State/Tx DsssRate1Mbps ns3::WifiMacHeader (CTL_RTS Duration/ID=1214us, RA=00:00:00:00:00:01, TA=00:00:00:00:00:02) ns3::WifiMacTrailer ()
r 0.125057 DsssRate1Mbps/NodeList/2/DeviceList/0/$ns3::WifiNetDevice/Phy/State/RxOk ns3::WifiMacHeader (CTL_RTS Duration/ID=1214us, RA=00:00:00:00:00:01, TA=00:00:00:00:00:02) ns3::WifiMacTrailer ()
t 0.125067 /NodeList/2/DeviceList/0/$ns3::WifiNetDevice/Phy/State/Tx DsssRate1Mbps ns3::WifiMacHeader (CTL_CTS Duration/ID=900us, RA=00:00:00:00:00:02) ns3::WifiMacTrailer ()
r 0.125372 DsssRate1Mbps/NodeList/0/DeviceList/0/$ns3::WifiNetDevice/Phy/State/RxOk ns3::WifiMacHeader (CTL_CTS Duration/ID=900us, RA=00:00:00:00:00:02) ns3::WifiMacTrailer ()
r 0.125372 DsssRate1Mbps/NodeList/1/DeviceList/0/$ns3::WifiNetDevice/Phy/State/RxOk ns3::WifiMacHeader (CTL_CTS Duration/ID=900us, RA=00:00:00:00:00:02) ns3::WifiMacTrailer ()
t 0.125382 /NodeList/0/DeviceList/0/$ns3::WifiNetDevice/Phy/State/Tx DsssRate1Mbps ns3::WifiMacHeader (MGT_ASSOCIATION_REQUEST ToDS=0, FromDS=0, MoreFrag=0, Retry=0, MoreData=0 Duration/ID=314us, DA=00:00:00:00:00:01, SA=00:00:00:00:00:02, BSSID=00:00:00:00:00:01, FragNumber=0, SeqNumber=0) ns3::MgtAssocRequestHeader (ssid=spe-ssid, rates=[1mbs 2mbs 5mbs 11mbs], Extended Capabilities=0 , HT Capabilities=0|0|0|0|0 0 0 0 0 0 0 0 0 0 0 0 0 0 0 0 0 0 0 0 0 0 0 0 0 0 0 0 0 0 0 0 0 0 0 0 0 0 0 0 0 0 0 0 0 0 0 0 0 0 0 0 0 0 0 0 0 0 0 0 0 0 0 0 0 0 0 0 0 0 0 0 0 0 0 0 0  , VHT Capabilities=0|281470681808895 , HE Capabilities=0|0|0|0|0) ns3::WifiMacTrailer ()
r 0.125959 DsssRate1Mbps/NodeList/2/DeviceList/0/$ns3::WifiNetDevice/Phy/State/RxOk ns3::WifiMacHeader (MGT_ASSOCIATION_REQUEST ToDS=0, FromDS=0, MoreFrag=0, Retry=0, MoreData=0 Duration/ID=314us, DA=00:00:00:00:00:01, SA=00:00:00:00:00:02, BSSID=00:00:00:00:00:01, FragNumber=0, SeqNumber=0) ns3::MgtAssocRequestHeader (ssid=spe-ssid, rates=[1mbs 2mbs 5mbs 11mbs], Extended Capabilities=0 , HT Capabilities=0|0|0|0|0 0 0 0 0 0 0 0 0 0 0 0 0 0 0 0 0 0 0 0 0 0 0 0 0 0 0 0 0 0 0 0 0 0 0 0 0 0 0 0 0 0 0 0 0 0 0 0 0 0 0 0 0 0 0 0 0 0 0 0 0 0 0 0 0 0 0 0 0 0 0 0 0 0 0 0 0  , VHT Capabilities=0|281470681808895 , HE Capabilities=0|0|0|0|0) ns3::WifiMacTrailer ()
t 0.125969 /NodeList/2/DeviceList/0/$ns3::WifiNetDevice/Phy/State/Tx DsssRate1Mbps ns3::WifiMacHeader (CTL_ACK Duration/ID=0us, RA=00:00:00:00:00:02) ns3::WifiMacTrailer ()
r 0.126273 DsssRate1Mbps/NodeList/0/DeviceList/0/$ns3::WifiNetDevice/Phy/State/RxOk ns3::WifiMacHeader (CTL_ACK Duration/ID=0us, RA=00:00:00:00:00:02) ns3::WifiMacTrailer ()
r 0.126273 DsssRate1Mbps/NodeList/1/DeviceList/0/$ns3::WifiNetDevice/Phy/State/RxOk ns3::WifiMacHeader (CTL_ACK Duration/ID=0us, RA=00:00:00:00:00:02) ns3::WifiMacTrailer ()
t 0.126323 /NodeList/2/DeviceList/0/$ns3::WifiNetDevice/Phy/State/Tx DsssRate1Mbps ns3::WifiMacHeader (CTL_RTS Duration/ID=1150us, RA=00:00:00:00:00:02, TA=00:00:00:00:00:01) ns3::WifiMacTrailer ()
r 0.126675 DsssRate1Mbps/NodeList/0/DeviceList/0/$ns3::WifiNetDevice/Phy/State/RxOk ns3::WifiMacHeader (CTL_RTS Duration/ID=1150us, RA=00:00:00:00:00:02, TA=00:00:00:00:00:01) ns3::WifiMacTrailer ()
r 0.126675 DsssRate1Mbps/NodeList/1/DeviceList/0/$ns3::WifiNetDevice/Phy/State/RxOk ns3::WifiMacHeader (CTL_RTS Duration/ID=1150us, RA=00:00:00:00:00:02, TA=00:00:00:00:00:01) ns3::WifiMacTrailer ()
t 0.126685 /NodeList/0/DeviceList/0/$ns3::WifiNetDevice/Phy/State/Tx DsssRate1Mbps ns3::WifiMacHeader (CTL_CTS Duration/ID=836us, RA=00:00:00:00:00:01) ns3::WifiMacTrailer ()
r 0.12699 DsssRate1Mbps/NodeList/2/DeviceList/0/$ns3::WifiNetDevice/Phy/State/RxOk ns3::WifiMacHeader (CTL_CTS Duration/ID=836us, RA=00:00:00:00:00:01) ns3::WifiMacTrailer ()
t 0.126999 /NodeList/2/DeviceList/0/$ns3::WifiNetDevice/Phy/State/Tx DsssRate1Mbps ns3::WifiMacHeader (MGT_ASSOCIATION_RESPONSE ToDS=0, FromDS=0, MoreFrag=0, Retry=0, MoreData=0 Duration/ID=314us, DA=00:00:00:00:00:02, SA=00:00:00:00:00:01, BSSID=00:00:00:00:00:01, FragNumber=0, SeqNumber=2) ns3::MgtAssocResponseHeader (status code=success, aid=2, rates=[*1mbs *2mbs 5mbs 11mbs], ERP information=0|0|0, Extended Capabilities=0 , HT Capabilities=0|0|0|0|0 0 0 0 0 0 0 0 0 0 0 0 0 0 0 0 0 0 0 0 0 0 0 0 0 0 0 0 0 0 0 0 0 0 0 0 0 0 0 0 0 0 0 0 0 0 0 0 0 0 0 0 0 0 0 0 0 0 0 0 0 0 0 0 0 0 0 0 0 0 0 0 0 0 0 0 0  , HT Operation=0|0|0|0|0|0|0|0|0|0|0|0|0|0|0|0|0|0|0 0 0 0 0 0 0 0 0 0 0 0 0 0 0 0 0 0 0 0 0 0 0 0 0 0 0 0 0 0 0 0 0 0 0 0 0 0 0 0 0 0 0 0 0 0 0 0 0 0 0 0 0 0 0 0 0 0 0 0 0 0 0 0 0 0 0 0 0 0 0 0 0 0 0 0 0  , VHT Capabilities=0|281470681808895 , VHT Operation=0|0|0|0 , HE Capabilities=0|0|0|0|0 , HE Operation=0|0) ns3::WifiMacTrailer ()
r 0.127512 DsssRate1Mbps/NodeList/0/DeviceList/0/$ns3::WifiNetDevice/Phy/State/RxOk ns3::WifiMacHeader (MGT_ASSOCIATION_RESPONSE ToDS=0, FromDS=0, MoreFrag=0, Retry=0, MoreData=0 Duration/ID=314us, DA=00:00:00:00:00:02, SA=00:00:00:00:00:01, BSSID=00:00:00:00:00:01, FragNumber=0, SeqNumber=2) ns3::MgtAssocResponseHeader (status code=success, aid=2, rates=[*1mbs *2mbs 5mbs 11mbs], ERP information=0|0|0, Extended Capabilities=0 , HT Capabilities=0|0|0|0|0 0 0 0 0 0 0 0 0 0 0 0 0 0 0 0 0 0 0 0 0 0 0 0 0 0 0 0 0 0 0 0 0 0 0 0 0 0 0 0 0 0 0 0 0 0 0 0 0 0 0 0 0 0 0 0 0 0 0 0 0 0 0 0 0 0 0 0 0 0 0 0 0 0 0 0 0  , HT Operation=0|0|0|0|0|0|0|0|0|0|0|0|0|0|0|0|0|0|0 0 0 0 0 0 0 0 0 0 0 0 0 0 0 0 0 0 0 0 0 0 0 0 0 0 0 0 0 0 0 0 0 0 0 0 0 0 0 0 0 0 0 0 0 0 0 0 0 0 0 0 0 0 0 0 0 0 0 0 0 0 0 0 0 0 0 0 0 0 0 0 0 0 0 0 0  , VHT Capabilities=0|281470681808895 , VHT Operation=0|0|0|0 , HE Capabilities=0|0|0|0|0 , HE Operation=0|0) ns3::WifiMacTrailer ()
r 0.127512 DsssRate1Mbps/NodeList/1/DeviceList/0/$ns3::WifiNetDevice/Phy/State/RxOk ns3::WifiMacHeader (MGT_ASSOCIATION_RESPONSE ToDS=0, FromDS=0, MoreFrag=0, Retry=0, MoreData=0 Duration/ID=314us, DA=00:00:00:00:00:02, SA=00:00:00:00:00:01, BSSID=00:00:00:00:00:01, FragNumber=0, SeqNumber=2) ns3::MgtAssocResponseHeader (status code=success, aid=2, rates=[*1mbs *2mbs 5mbs 11mbs], ERP information=0|0|0, Extended Capabilities=0 , HT Capabilities=0|0|0|0|0 0 0 0 0 0 0 0 0 0 0 0 0 0 0 0 0 0 0 0 0 0 0 0 0 0 0 0 0 0 0 0 0 0 0 0 0 0 0 0 0 0 0 0 0 0 0 0 0 0 0 0 0 0 0 0 0 0 0 0 0 0 0 0 0 0 0 0 0 0 0 0 0 0 0 0 0  , HT Operation=0|0|0|0|0|0|0|0|0|0|0|0|0|0|0|0|0|0|0 0 0 0 0 0 0 0 0 0 0 0 0 0 0 0 0 0 0 0 0 0 0 0 0 0 0 0 0 0 0 0 0 0 0 0 0 0 0 0 0 0 0 0 0 0 0 0 0 0 0 0 0 0 0 0 0 0 0 0 0 0 0 0 0 0 0 0 0 0 0 0 0 0 0 0 0  , VHT Capabilities=0|281470681808895 , VHT Operation=0|0|0|0 , HE Capabilities=0|0|0|0|0 , HE Operation=0|0) ns3::WifiMacTrailer ()
t 0.127522 /NodeList/0/DeviceList/0/$ns3::WifiNetDevice/Phy/State/Tx DsssRate1Mbps ns3::WifiMacHeader (CTL_ACK Duration/ID=0us, RA=00:00:00:00:00:01) ns3::WifiMacTrailer ()
r 0.127827 DsssRate1Mbps/NodeList/2/DeviceList/0/$ns3::WifiNetDevice/Phy/State/RxOk ns3::WifiMacHeader (CTL_ACK Duration/ID=0us, RA=00:00:00:00:00:01) ns3::WifiMacTrailer ()
t 0.196486 /NodeList/2/DeviceList/0/$ns3::WifiNetDevice/Phy/State/Tx DsssRate1Mbps ns3::WifiMacHeader (MGT_BEACON ToDS=0, FromDS=0, MoreFrag=0, Retry=0, MoreData=0 Duration/ID=0us, DA=ff:ff:ff:ff:ff:ff, SA=00:00:00:00:00:01, BSSID=00:00:00:00:00:01, FragNumber=0, SeqNumber=3) ns3::MgtProbeResponseHeader (ssid=spe-ssid, rates=[*1mbs *2mbs 5mbs 11mbs], ERP information=0|0|0, Extended Capabilities=0 , HT Capabilities=0|0|0|0|0 0 0 0 0 0 0 0 0 0 0 0 0 0 0 0 0 0 0 0 0 0 0 0 0 0 0 0 0 0 0 0 0 0 0 0 0 0 0 0 0 0 0 0 0 0 0 0 0 0 0 0 0 0 0 0 0 0 0 0 0 0 0 0 0 0 0 0 0 0 0 0 0 0 0 0 0  , HT Operation=0|0|0|0|0|0|0|0|0|0|0|0|0|0|0|0|0|0|0 0 0 0 0 0 0 0 0 0 0 0 0 0 0 0 0 0 0 0 0 0 0 0 0 0 0 0 0 0 0 0 0 0 0 0 0 0 0 0 0 0 0 0 0 0 0 0 0 0 0 0 0 0 0 0 0 0 0 0 0 0 0 0 0 0 0 0 0 0 0 0 0 0 0 0 0  , VHT Capabilities=0|281470681808895 , VHT Operation=0|0|0|0 , HE Capabilities=0|0|0|0|0 , HE Operation=0|0) ns3::WifiMacTrailer ()
r 0.197151 DsssRate1Mbps/NodeList/0/DeviceList/0/$ns3::WifiNetDevice/Phy/State/RxOk ns3::WifiMacHeader (MGT_BEACON ToDS=0, FromDS=0, MoreFrag=0, Retry=0, MoreData=0 Duration/ID=0us, DA=ff:ff:ff:ff:ff:ff, SA=00:00:00:00:00:01, BSSID=00:00:00:00:00:01, FragNumber=0, SeqNumber=3) ns3::MgtProbeResponseHeader (ssid=spe-ssid, rates=[*1mbs *2mbs 5mbs 11mbs], ERP information=0|0|0, Extended Capabilities=0 , HT Capabilities=0|0|0|0|0 0 0 0 0 0 0 0 0 0 0 0 0 0 0 0 0 0 0 0 0 0 0 0 0 0 0 0 0 0 0 0 0 0 0 0 0 0 0 0 0 0 0 0 0 0 0 0 0 0 0 0 0 0 0 0 0 0 0 0 0 0 0 0 0 0 0 0 0 0 0 0 0 0 0 0 0  , HT Operation=0|0|0|0|0|0|0|0|0|0|0|0|0|0|0|0|0|0|0 0 0 0 0 0 0 0 0 0 0 0 0 0 0 0 0 0 0 0 0 0 0 0 0 0 0 0 0 0 0 0 0 0 0 0 0 0 0 0 0 0 0 0 0 0 0 0 0 0 0 0 0 0 0 0 0 0 0 0 0 0 0 0 0 0 0 0 0 0 0 0 0 0 0 0 0  , VHT Capabilities=0|281470681808895 , VHT Operation=0|0|0|0 , HE Capabilities=0|0|0|0|0 , HE Operation=0|0) ns3::WifiMacTrailer ()
r 0.197151 DsssRate1Mbps/NodeList/1/DeviceList/0/$ns3::WifiNetDevice/Phy/State/RxOk ns3::WifiMacHeader (MGT_BEACON ToDS=0, FromDS=0, MoreFrag=0, Retry=0, MoreData=0 Duration/ID=0us, DA=ff:ff:ff:ff:ff:ff, SA=00:00:00:00:00:01, BSSID=00:00:00:00:00:01, FragNumber=0, SeqNumber=3) ns3::MgtProbeResponseHeader (ssid=spe-ssid, rates=[*1mbs *2mbs 5mbs 11mbs], ERP information=0|0|0, Extended Capabilities=0 , HT Capabilities=0|0|0|0|0 0 0 0 0 0 0 0 0 0 0 0 0 0 0 0 0 0 0 0 0 0 0 0 0 0 0 0 0 0 0 0 0 0 0 0 0 0 0 0 0 0 0 0 0 0 0 0 0 0 0 0 0 0 0 0 0 0 0 0 0 0 0 0 0 0 0 0 0 0 0 0 0 0 0 0 0  , HT Operation=0|0|0|0|0|0|0|0|0|0|0|0|0|0|0|0|0|0|0 0 0 0 0 0 0 0 0 0 0 0 0 0 0 0 0 0 0 0 0 0 0 0 0 0 0 0 0 0 0 0 0 0 0 0 0 0 0 0 0 0 0 0 0 0 0 0 0 0 0 0 0 0 0 0 0 0 0 0 0 0 0 0 0 0 0 0 0 0 0 0 0 0 0 0 0  , VHT Capabilities=0|281470681808895 , VHT Operation=0|0|0|0 , HE Capabilities=0|0|0|0|0 , HE Operation=0|0) ns3::WifiMacTrailer ()
t 0.298886 /NodeList/2/DeviceList/0/$ns3::WifiNetDevice/Phy/State/Tx DsssRate1Mbps ns3::WifiMacHeader (MGT_BEACON ToDS=0, FromDS=0, MoreFrag=0, Retry=0, MoreData=0 Duration/ID=0us, DA=ff:ff:ff:ff:ff:ff, SA=00:00:00:00:00:01, BSSID=00:00:00:00:00:01, FragNumber=0, SeqNumber=4) ns3::MgtProbeResponseHeader (ssid=spe-ssid, rates=[*1mbs *2mbs 5mbs 11mbs], ERP information=0|0|0, Extended Capabilities=0 , HT Capabilities=0|0|0|0|0 0 0 0 0 0 0 0 0 0 0 0 0 0 0 0 0 0 0 0 0 0 0 0 0 0 0 0 0 0 0 0 0 0 0 0 0 0 0 0 0 0 0 0 0 0 0 0 0 0 0 0 0 0 0 0 0 0 0 0 0 0 0 0 0 0 0 0 0 0 0 0 0 0 0 0 0  , HT Operation=0|0|0|0|0|0|0|0|0|0|0|0|0|0|0|0|0|0|0 0 0 0 0 0 0 0 0 0 0 0 0 0 0 0 0 0 0 0 0 0 0 0 0 0 0 0 0 0 0 0 0 0 0 0 0 0 0 0 0 0 0 0 0 0 0 0 0 0 0 0 0 0 0 0 0 0 0 0 0 0 0 0 0 0 0 0 0 0 0 0 0 0 0 0 0  , VHT Capabilities=0|281470681808895 , VHT Operation=0|0|0|0 , HE Capabilities=0|0|0|0|0 , HE Operation=0|0) ns3::WifiMacTrailer ()
r 0.29955 DsssRate1Mbps/NodeList/0/DeviceList/0/$ns3::WifiNetDevice/Phy/State/RxOk ns3::WifiMacHeader (MGT_BEACON ToDS=0, FromDS=0, MoreFrag=0, Retry=0, MoreData=0 Duration/ID=0us, DA=ff:ff:ff:ff:ff:ff, SA=00:00:00:00:00:01, BSSID=00:00:00:00:00:01, FragNumber=0, SeqNumber=4) ns3::MgtProbeResponseHeader (ssid=spe-ssid, rates=[*1mbs *2mbs 5mbs 11mbs], ERP information=0|0|0, Extended Capabilities=0 , HT Capabilities=0|0|0|0|0 0 0 0 0 0 0 0 0 0 0 0 0 0 0 0 0 0 0 0 0 0 0 0 0 0 0 0 0 0 0 0 0 0 0 0 0 0 0 0 0 0 0 0 0 0 0 0 0 0 0 0 0 0 0 0 0 0 0 0 0 0 0 0 0 0 0 0 0 0 0 0 0 0 0 0 0  , HT Operation=0|0|0|0|0|0|0|0|0|0|0|0|0|0|0|0|0|0|0 0 0 0 0 0 0 0 0 0 0 0 0 0 0 0 0 0 0 0 0 0 0 0 0 0 0 0 0 0 0 0 0 0 0 0 0 0 0 0 0 0 0 0 0 0 0 0 0 0 0 0 0 0 0 0 0 0 0 0 0 0 0 0 0 0 0 0 0 0 0 0 0 0 0 0 0  , VHT Capabilities=0|281470681808895 , VHT Operation=0|0|0|0 , HE Capabilities=0|0|0|0|0 , HE Operation=0|0) ns3::WifiMacTrailer ()
r 0.29955 DsssRate1Mbps/NodeList/1/DeviceList/0/$ns3::WifiNetDevice/Phy/State/RxOk ns3::WifiMacHeader (MGT_BEACON ToDS=0, FromDS=0, MoreFrag=0, Retry=0, MoreData=0 Duration/ID=0us, DA=ff:ff:ff:ff:ff:ff, SA=00:00:00:00:00:01, BSSID=00:00:00:00:00:01, FragNumber=0, SeqNumber=4) ns3::MgtProbeResponseHeader (ssid=spe-ssid, rates=[*1mbs *2mbs 5mbs 11mbs], ERP information=0|0|0, Extended Capabilities=0 , HT Capabilities=0|0|0|0|0 0 0 0 0 0 0 0 0 0 0 0 0 0 0 0 0 0 0 0 0 0 0 0 0 0 0 0 0 0 0 0 0 0 0 0 0 0 0 0 0 0 0 0 0 0 0 0 0 0 0 0 0 0 0 0 0 0 0 0 0 0 0 0 0 0 0 0 0 0 0 0 0 0 0 0 0  , HT Operation=0|0|0|0|0|0|0|0|0|0|0|0|0|0|0|0|0|0|0 0 0 0 0 0 0 0 0 0 0 0 0 0 0 0 0 0 0 0 0 0 0 0 0 0 0 0 0 0 0 0 0 0 0 0 0 0 0 0 0 0 0 0 0 0 0 0 0 0 0 0 0 0 0 0 0 0 0 0 0 0 0 0 0 0 0 0 0 0 0 0 0 0 0 0 0  , VHT Capabilities=0|281470681808895 , VHT Operation=0|0|0|0 , HE Capabilities=0|0|0|0|0 , HE Operation=0|0) ns3::WifiMacTrailer ()
t 0.401286 /NodeList/2/DeviceList/0/$ns3::WifiNetDevice/Phy/State/Tx DsssRate1Mbps ns3::WifiMacHeader (MGT_BEACON ToDS=0, FromDS=0, MoreFrag=0, Retry=0, MoreData=0 Duration/ID=0us, DA=ff:ff:ff:ff:ff:ff, SA=00:00:00:00:00:01, BSSID=00:00:00:00:00:01, FragNumber=0, SeqNumber=5) ns3::MgtProbeResponseHeader (ssid=spe-ssid, rates=[*1mbs *2mbs 5mbs 11mbs], ERP information=0|0|0, Extended Capabilities=0 , HT Capabilities=0|0|0|0|0 0 0 0 0 0 0 0 0 0 0 0 0 0 0 0 0 0 0 0 0 0 0 0 0 0 0 0 0 0 0 0 0 0 0 0 0 0 0 0 0 0 0 0 0 0 0 0 0 0 0 0 0 0 0 0 0 0 0 0 0 0 0 0 0 0 0 0 0 0 0 0 0 0 0 0 0  , HT Operation=0|0|0|0|0|0|0|0|0|0|0|0|0|0|0|0|0|0|0 0 0 0 0 0 0 0 0 0 0 0 0 0 0 0 0 0 0 0 0 0 0 0 0 0 0 0 0 0 0 0 0 0 0 0 0 0 0 0 0 0 0 0 0 0 0 0 0 0 0 0 0 0 0 0 0 0 0 0 0 0 0 0 0 0 0 0 0 0 0 0 0 0 0 0 0  , VHT Capabilities=0|281470681808895 , VHT Operation=0|0|0|0 , HE Capabilities=0|0|0|0|0 , HE Operation=0|0) ns3::WifiMacTrailer ()
r 0.40195 DsssRate1Mbps/NodeList/0/DeviceList/0/$ns3::WifiNetDevice/Phy/State/RxOk ns3::WifiMacHeader (MGT_BEACON ToDS=0, FromDS=0, MoreFrag=0, Retry=0, MoreData=0 Duration/ID=0us, DA=ff:ff:ff:ff:ff:ff, SA=00:00:00:00:00:01, BSSID=00:00:00:00:00:01, FragNumber=0, SeqNumber=5) ns3::MgtProbeResponseHeader (ssid=spe-ssid, rates=[*1mbs *2mbs 5mbs 11mbs], ERP information=0|0|0, Extended Capabilities=0 , HT Capabilities=0|0|0|0|0 0 0 0 0 0 0 0 0 0 0 0 0 0 0 0 0 0 0 0 0 0 0 0 0 0 0 0 0 0 0 0 0 0 0 0 0 0 0 0 0 0 0 0 0 0 0 0 0 0 0 0 0 0 0 0 0 0 0 0 0 0 0 0 0 0 0 0 0 0 0 0 0 0 0 0 0  , HT Operation=0|0|0|0|0|0|0|0|0|0|0|0|0|0|0|0|0|0|0 0 0 0 0 0 0 0 0 0 0 0 0 0 0 0 0 0 0 0 0 0 0 0 0 0 0 0 0 0 0 0 0 0 0 0 0 0 0 0 0 0 0 0 0 0 0 0 0 0 0 0 0 0 0 0 0 0 0 0 0 0 0 0 0 0 0 0 0 0 0 0 0 0 0 0 0  , VHT Capabilities=0|281470681808895 , VHT Operation=0|0|0|0 , HE Capabilities=0|0|0|0|0 , HE Operation=0|0) ns3::WifiMacTrailer ()
r 0.40195 DsssRate1Mbps/NodeList/1/DeviceList/0/$ns3::WifiNetDevice/Phy/State/RxOk ns3::WifiMacHeader (MGT_BEACON ToDS=0, FromDS=0, MoreFrag=0, Retry=0, MoreData=0 Duration/ID=0us, DA=ff:ff:ff:ff:ff:ff, SA=00:00:00:00:00:01, BSSID=00:00:00:00:00:01, FragNumber=0, SeqNumber=5) ns3::MgtProbeResponseHeader (ssid=spe-ssid, rates=[*1mbs *2mbs 5mbs 11mbs], ERP information=0|0|0, Extended Capabilities=0 , HT Capabilities=0|0|0|0|0 0 0 0 0 0 0 0 0 0 0 0 0 0 0 0 0 0 0 0 0 0 0 0 0 0 0 0 0 0 0 0 0 0 0 0 0 0 0 0 0 0 0 0 0 0 0 0 0 0 0 0 0 0 0 0 0 0 0 0 0 0 0 0 0 0 0 0 0 0 0 0 0 0 0 0 0  , HT Operation=0|0|0|0|0|0|0|0|0|0|0|0|0|0|0|0|0|0|0 0 0 0 0 0 0 0 0 0 0 0 0 0 0 0 0 0 0 0 0 0 0 0 0 0 0 0 0 0 0 0 0 0 0 0 0 0 0 0 0 0 0 0 0 0 0 0 0 0 0 0 0 0 0 0 0 0 0 0 0 0 0 0 0 0 0 0 0 0 0 0 0 0 0 0 0  , VHT Capabilities=0|281470681808895 , VHT Operation=0|0|0|0 , HE Capabilities=0|0|0|0|0 , HE Operation=0|0) ns3::WifiMacTrailer ()
t 0.503686 /NodeList/2/DeviceList/0/$ns3::WifiNetDevice/Phy/State/Tx DsssRate1Mbps ns3::WifiMacHeader (MGT_BEACON ToDS=0, FromDS=0, MoreFrag=0, Retry=0, MoreData=0 Duration/ID=0us, DA=ff:ff:ff:ff:ff:ff, SA=00:00:00:00:00:01, BSSID=00:00:00:00:00:01, FragNumber=0, SeqNumber=6) ns3::MgtProbeResponseHeader (ssid=spe-ssid, rates=[*1mbs *2mbs 5mbs 11mbs], ERP information=0|0|0, Extended Capabilities=0 , HT Capabilities=0|0|0|0|0 0 0 0 0 0 0 0 0 0 0 0 0 0 0 0 0 0 0 0 0 0 0 0 0 0 0 0 0 0 0 0 0 0 0 0 0 0 0 0 0 0 0 0 0 0 0 0 0 0 0 0 0 0 0 0 0 0 0 0 0 0 0 0 0 0 0 0 0 0 0 0 0 0 0 0 0  , HT Operation=0|0|0|0|0|0|0|0|0|0|0|0|0|0|0|0|0|0|0 0 0 0 0 0 0 0 0 0 0 0 0 0 0 0 0 0 0 0 0 0 0 0 0 0 0 0 0 0 0 0 0 0 0 0 0 0 0 0 0 0 0 0 0 0 0 0 0 0 0 0 0 0 0 0 0 0 0 0 0 0 0 0 0 0 0 0 0 0 0 0 0 0 0 0 0  , VHT Capabilities=0|281470681808895 , VHT Operation=0|0|0|0 , HE Capabilities=0|0|0|0|0 , HE Operation=0|0) ns3::WifiMacTrailer ()
r 0.504351 DsssRate1Mbps/NodeList/0/DeviceList/0/$ns3::WifiNetDevice/Phy/State/RxOk ns3::WifiMacHeader (MGT_BEACON ToDS=0, FromDS=0, MoreFrag=0, Retry=0, MoreData=0 Duration/ID=0us, DA=ff:ff:ff:ff:ff:ff, SA=00:00:00:00:00:01, BSSID=00:00:00:00:00:01, FragNumber=0, SeqNumber=6) ns3::MgtProbeResponseHeader (ssid=spe-ssid, rates=[*1mbs *2mbs 5mbs 11mbs], ERP information=0|0|0, Extended Capabilities=0 , HT Capabilities=0|0|0|0|0 0 0 0 0 0 0 0 0 0 0 0 0 0 0 0 0 0 0 0 0 0 0 0 0 0 0 0 0 0 0 0 0 0 0 0 0 0 0 0 0 0 0 0 0 0 0 0 0 0 0 0 0 0 0 0 0 0 0 0 0 0 0 0 0 0 0 0 0 0 0 0 0 0 0 0 0  , HT Operation=0|0|0|0|0|0|0|0|0|0|0|0|0|0|0|0|0|0|0 0 0 0 0 0 0 0 0 0 0 0 0 0 0 0 0 0 0 0 0 0 0 0 0 0 0 0 0 0 0 0 0 0 0 0 0 0 0 0 0 0 0 0 0 0 0 0 0 0 0 0 0 0 0 0 0 0 0 0 0 0 0 0 0 0 0 0 0 0 0 0 0 0 0 0 0  , VHT Capabilities=0|281470681808895 , VHT Operation=0|0|0|0 , HE Capabilities=0|0|0|0|0 , HE Operation=0|0) ns3::WifiMacTrailer ()
r 0.504351 DsssRate1Mbps/NodeList/1/DeviceList/0/$ns3::WifiNetDevice/Phy/State/RxOk ns3::WifiMacHeader (MGT_BEACON ToDS=0, FromDS=0, MoreFrag=0, Retry=0, MoreData=0 Duration/ID=0us, DA=ff:ff:ff:ff:ff:ff, SA=00:00:00:00:00:01, BSSID=00:00:00:00:00:01, FragNumber=0, SeqNumber=6) ns3::MgtProbeResponseHeader (ssid=spe-ssid, rates=[*1mbs *2mbs 5mbs 11mbs], ERP information=0|0|0, Extended Capabilities=0 , HT Capabilities=0|0|0|0|0 0 0 0 0 0 0 0 0 0 0 0 0 0 0 0 0 0 0 0 0 0 0 0 0 0 0 0 0 0 0 0 0 0 0 0 0 0 0 0 0 0 0 0 0 0 0 0 0 0 0 0 0 0 0 0 0 0 0 0 0 0 0 0 0 0 0 0 0 0 0 0 0 0 0 0 0  , HT Operation=0|0|0|0|0|0|0|0|0|0|0|0|0|0|0|0|0|0|0 0 0 0 0 0 0 0 0 0 0 0 0 0 0 0 0 0 0 0 0 0 0 0 0 0 0 0 0 0 0 0 0 0 0 0 0 0 0 0 0 0 0 0 0 0 0 0 0 0 0 0 0 0 0 0 0 0 0 0 0 0 0 0 0 0 0 0 0 0 0 0 0 0 0 0 0  , VHT Capabilities=0|281470681808895 , VHT Operation=0|0|0|0 , HE Capabilities=0|0|0|0|0 , HE Operation=0|0) ns3::WifiMacTrailer ()
t 0.606086 /NodeList/2/DeviceList/0/$ns3::WifiNetDevice/Phy/State/Tx DsssRate1Mbps ns3::WifiMacHeader (MGT_BEACON ToDS=0, FromDS=0, MoreFrag=0, Retry=0, MoreData=0 Duration/ID=0us, DA=ff:ff:ff:ff:ff:ff, SA=00:00:00:00:00:01, BSSID=00:00:00:00:00:01, FragNumber=0, SeqNumber=7) ns3::MgtProbeResponseHeader (ssid=spe-ssid, rates=[*1mbs *2mbs 5mbs 11mbs], ERP information=0|0|0, Extended Capabilities=0 , HT Capabilities=0|0|0|0|0 0 0 0 0 0 0 0 0 0 0 0 0 0 0 0 0 0 0 0 0 0 0 0 0 0 0 0 0 0 0 0 0 0 0 0 0 0 0 0 0 0 0 0 0 0 0 0 0 0 0 0 0 0 0 0 0 0 0 0 0 0 0 0 0 0 0 0 0 0 0 0 0 0 0 0 0  , HT Operation=0|0|0|0|0|0|0|0|0|0|0|0|0|0|0|0|0|0|0 0 0 0 0 0 0 0 0 0 0 0 0 0 0 0 0 0 0 0 0 0 0 0 0 0 0 0 0 0 0 0 0 0 0 0 0 0 0 0 0 0 0 0 0 0 0 0 0 0 0 0 0 0 0 0 0 0 0 0 0 0 0 0 0 0 0 0 0 0 0 0 0 0 0 0 0  , VHT Capabilities=0|281470681808895 , VHT Operation=0|0|0|0 , HE Capabilities=0|0|0|0|0 , HE Operation=0|0) ns3::WifiMacTrailer ()
r 0.60675 DsssRate1Mbps/NodeList/0/DeviceList/0/$ns3::WifiNetDevice/Phy/State/RxOk ns3::WifiMacHeader (MGT_BEACON ToDS=0, FromDS=0, MoreFrag=0, Retry=0, MoreData=0 Duration/ID=0us, DA=ff:ff:ff:ff:ff:ff, SA=00:00:00:00:00:01, BSSID=00:00:00:00:00:01, FragNumber=0, SeqNumber=7) ns3::MgtProbeResponseHeader (ssid=spe-ssid, rates=[*1mbs *2mbs 5mbs 11mbs], ERP information=0|0|0, Extended Capabilities=0 , HT Capabilities=0|0|0|0|0 0 0 0 0 0 0 0 0 0 0 0 0 0 0 0 0 0 0 0 0 0 0 0 0 0 0 0 0 0 0 0 0 0 0 0 0 0 0 0 0 0 0 0 0 0 0 0 0 0 0 0 0 0 0 0 0 0 0 0 0 0 0 0 0 0 0 0 0 0 0 0 0 0 0 0 0  , HT Operation=0|0|0|0|0|0|0|0|0|0|0|0|0|0|0|0|0|0|0 0 0 0 0 0 0 0 0 0 0 0 0 0 0 0 0 0 0 0 0 0 0 0 0 0 0 0 0 0 0 0 0 0 0 0 0 0 0 0 0 0 0 0 0 0 0 0 0 0 0 0 0 0 0 0 0 0 0 0 0 0 0 0 0 0 0 0 0 0 0 0 0 0 0 0 0  , VHT Capabilities=0|281470681808895 , VHT Operation=0|0|0|0 , HE Capabilities=0|0|0|0|0 , HE Operation=0|0) ns3::WifiMacTrailer ()